# vtk DataFile Version 2.0
generated by CFD-lab course output (written by Tobias Neckel) 
ASCII

DATASET STRUCTURED_GRID
DIMENSIONS  26 26 1 
POINTS 676 float

0.500000 0.000000 0
0.520000 0.000000 0
0.540000 0.000000 0
0.560000 0.000000 0
0.580000 0.000000 0
0.600000 0.000000 0
0.620000 0.000000 0
0.640000 0.000000 0
0.660000 0.000000 0
0.680000 0.000000 0
0.700000 0.000000 0
0.720000 0.000000 0
0.740000 0.000000 0
0.760000 0.000000 0
0.780000 0.000000 0
0.800000 0.000000 0
0.820000 0.000000 0
0.840000 0.000000 0
0.860000 0.000000 0
0.880000 0.000000 0
0.900000 0.000000 0
0.920000 0.000000 0
0.940000 0.000000 0
0.960000 0.000000 0
0.980000 0.000000 0
1.000000 0.000000 0
0.500000 0.020000 0
0.520000 0.020000 0
0.540000 0.020000 0
0.560000 0.020000 0
0.580000 0.020000 0
0.600000 0.020000 0
0.620000 0.020000 0
0.640000 0.020000 0
0.660000 0.020000 0
0.680000 0.020000 0
0.700000 0.020000 0
0.720000 0.020000 0
0.740000 0.020000 0
0.760000 0.020000 0
0.780000 0.020000 0
0.800000 0.020000 0
0.820000 0.020000 0
0.840000 0.020000 0
0.860000 0.020000 0
0.880000 0.020000 0
0.900000 0.020000 0
0.920000 0.020000 0
0.940000 0.020000 0
0.960000 0.020000 0
0.980000 0.020000 0
1.000000 0.020000 0
0.500000 0.040000 0
0.520000 0.040000 0
0.540000 0.040000 0
0.560000 0.040000 0
0.580000 0.040000 0
0.600000 0.040000 0
0.620000 0.040000 0
0.640000 0.040000 0
0.660000 0.040000 0
0.680000 0.040000 0
0.700000 0.040000 0
0.720000 0.040000 0
0.740000 0.040000 0
0.760000 0.040000 0
0.780000 0.040000 0
0.800000 0.040000 0
0.820000 0.040000 0
0.840000 0.040000 0
0.860000 0.040000 0
0.880000 0.040000 0
0.900000 0.040000 0
0.920000 0.040000 0
0.940000 0.040000 0
0.960000 0.040000 0
0.980000 0.040000 0
1.000000 0.040000 0
0.500000 0.060000 0
0.520000 0.060000 0
0.540000 0.060000 0
0.560000 0.060000 0
0.580000 0.060000 0
0.600000 0.060000 0
0.620000 0.060000 0
0.640000 0.060000 0
0.660000 0.060000 0
0.680000 0.060000 0
0.700000 0.060000 0
0.720000 0.060000 0
0.740000 0.060000 0
0.760000 0.060000 0
0.780000 0.060000 0
0.800000 0.060000 0
0.820000 0.060000 0
0.840000 0.060000 0
0.860000 0.060000 0
0.880000 0.060000 0
0.900000 0.060000 0
0.920000 0.060000 0
0.940000 0.060000 0
0.960000 0.060000 0
0.980000 0.060000 0
1.000000 0.060000 0
0.500000 0.080000 0
0.520000 0.080000 0
0.540000 0.080000 0
0.560000 0.080000 0
0.580000 0.080000 0
0.600000 0.080000 0
0.620000 0.080000 0
0.640000 0.080000 0
0.660000 0.080000 0
0.680000 0.080000 0
0.700000 0.080000 0
0.720000 0.080000 0
0.740000 0.080000 0
0.760000 0.080000 0
0.780000 0.080000 0
0.800000 0.080000 0
0.820000 0.080000 0
0.840000 0.080000 0
0.860000 0.080000 0
0.880000 0.080000 0
0.900000 0.080000 0
0.920000 0.080000 0
0.940000 0.080000 0
0.960000 0.080000 0
0.980000 0.080000 0
1.000000 0.080000 0
0.500000 0.100000 0
0.520000 0.100000 0
0.540000 0.100000 0
0.560000 0.100000 0
0.580000 0.100000 0
0.600000 0.100000 0
0.620000 0.100000 0
0.640000 0.100000 0
0.660000 0.100000 0
0.680000 0.100000 0
0.700000 0.100000 0
0.720000 0.100000 0
0.740000 0.100000 0
0.760000 0.100000 0
0.780000 0.100000 0
0.800000 0.100000 0
0.820000 0.100000 0
0.840000 0.100000 0
0.860000 0.100000 0
0.880000 0.100000 0
0.900000 0.100000 0
0.920000 0.100000 0
0.940000 0.100000 0
0.960000 0.100000 0
0.980000 0.100000 0
1.000000 0.100000 0
0.500000 0.120000 0
0.520000 0.120000 0
0.540000 0.120000 0
0.560000 0.120000 0
0.580000 0.120000 0
0.600000 0.120000 0
0.620000 0.120000 0
0.640000 0.120000 0
0.660000 0.120000 0
0.680000 0.120000 0
0.700000 0.120000 0
0.720000 0.120000 0
0.740000 0.120000 0
0.760000 0.120000 0
0.780000 0.120000 0
0.800000 0.120000 0
0.820000 0.120000 0
0.840000 0.120000 0
0.860000 0.120000 0
0.880000 0.120000 0
0.900000 0.120000 0
0.920000 0.120000 0
0.940000 0.120000 0
0.960000 0.120000 0
0.980000 0.120000 0
1.000000 0.120000 0
0.500000 0.140000 0
0.520000 0.140000 0
0.540000 0.140000 0
0.560000 0.140000 0
0.580000 0.140000 0
0.600000 0.140000 0
0.620000 0.140000 0
0.640000 0.140000 0
0.660000 0.140000 0
0.680000 0.140000 0
0.700000 0.140000 0
0.720000 0.140000 0
0.740000 0.140000 0
0.760000 0.140000 0
0.780000 0.140000 0
0.800000 0.140000 0
0.820000 0.140000 0
0.840000 0.140000 0
0.860000 0.140000 0
0.880000 0.140000 0
0.900000 0.140000 0
0.920000 0.140000 0
0.940000 0.140000 0
0.960000 0.140000 0
0.980000 0.140000 0
1.000000 0.140000 0
0.500000 0.160000 0
0.520000 0.160000 0
0.540000 0.160000 0
0.560000 0.160000 0
0.580000 0.160000 0
0.600000 0.160000 0
0.620000 0.160000 0
0.640000 0.160000 0
0.660000 0.160000 0
0.680000 0.160000 0
0.700000 0.160000 0
0.720000 0.160000 0
0.740000 0.160000 0
0.760000 0.160000 0
0.780000 0.160000 0
0.800000 0.160000 0
0.820000 0.160000 0
0.840000 0.160000 0
0.860000 0.160000 0
0.880000 0.160000 0
0.900000 0.160000 0
0.920000 0.160000 0
0.940000 0.160000 0
0.960000 0.160000 0
0.980000 0.160000 0
1.000000 0.160000 0
0.500000 0.180000 0
0.520000 0.180000 0
0.540000 0.180000 0
0.560000 0.180000 0
0.580000 0.180000 0
0.600000 0.180000 0
0.620000 0.180000 0
0.640000 0.180000 0
0.660000 0.180000 0
0.680000 0.180000 0
0.700000 0.180000 0
0.720000 0.180000 0
0.740000 0.180000 0
0.760000 0.180000 0
0.780000 0.180000 0
0.800000 0.180000 0
0.820000 0.180000 0
0.840000 0.180000 0
0.860000 0.180000 0
0.880000 0.180000 0
0.900000 0.180000 0
0.920000 0.180000 0
0.940000 0.180000 0
0.960000 0.180000 0
0.980000 0.180000 0
1.000000 0.180000 0
0.500000 0.200000 0
0.520000 0.200000 0
0.540000 0.200000 0
0.560000 0.200000 0
0.580000 0.200000 0
0.600000 0.200000 0
0.620000 0.200000 0
0.640000 0.200000 0
0.660000 0.200000 0
0.680000 0.200000 0
0.700000 0.200000 0
0.720000 0.200000 0
0.740000 0.200000 0
0.760000 0.200000 0
0.780000 0.200000 0
0.800000 0.200000 0
0.820000 0.200000 0
0.840000 0.200000 0
0.860000 0.200000 0
0.880000 0.200000 0
0.900000 0.200000 0
0.920000 0.200000 0
0.940000 0.200000 0
0.960000 0.200000 0
0.980000 0.200000 0
1.000000 0.200000 0
0.500000 0.220000 0
0.520000 0.220000 0
0.540000 0.220000 0
0.560000 0.220000 0
0.580000 0.220000 0
0.600000 0.220000 0
0.620000 0.220000 0
0.640000 0.220000 0
0.660000 0.220000 0
0.680000 0.220000 0
0.700000 0.220000 0
0.720000 0.220000 0
0.740000 0.220000 0
0.760000 0.220000 0
0.780000 0.220000 0
0.800000 0.220000 0
0.820000 0.220000 0
0.840000 0.220000 0
0.860000 0.220000 0
0.880000 0.220000 0
0.900000 0.220000 0
0.920000 0.220000 0
0.940000 0.220000 0
0.960000 0.220000 0
0.980000 0.220000 0
1.000000 0.220000 0
0.500000 0.240000 0
0.520000 0.240000 0
0.540000 0.240000 0
0.560000 0.240000 0
0.580000 0.240000 0
0.600000 0.240000 0
0.620000 0.240000 0
0.640000 0.240000 0
0.660000 0.240000 0
0.680000 0.240000 0
0.700000 0.240000 0
0.720000 0.240000 0
0.740000 0.240000 0
0.760000 0.240000 0
0.780000 0.240000 0
0.800000 0.240000 0
0.820000 0.240000 0
0.840000 0.240000 0
0.860000 0.240000 0
0.880000 0.240000 0
0.900000 0.240000 0
0.920000 0.240000 0
0.940000 0.240000 0
0.960000 0.240000 0
0.980000 0.240000 0
1.000000 0.240000 0
0.500000 0.260000 0
0.520000 0.260000 0
0.540000 0.260000 0
0.560000 0.260000 0
0.580000 0.260000 0
0.600000 0.260000 0
0.620000 0.260000 0
0.640000 0.260000 0
0.660000 0.260000 0
0.680000 0.260000 0
0.700000 0.260000 0
0.720000 0.260000 0
0.740000 0.260000 0
0.760000 0.260000 0
0.780000 0.260000 0
0.800000 0.260000 0
0.820000 0.260000 0
0.840000 0.260000 0
0.860000 0.260000 0
0.880000 0.260000 0
0.900000 0.260000 0
0.920000 0.260000 0
0.940000 0.260000 0
0.960000 0.260000 0
0.980000 0.260000 0
1.000000 0.260000 0
0.500000 0.280000 0
0.520000 0.280000 0
0.540000 0.280000 0
0.560000 0.280000 0
0.580000 0.280000 0
0.600000 0.280000 0
0.620000 0.280000 0
0.640000 0.280000 0
0.660000 0.280000 0
0.680000 0.280000 0
0.700000 0.280000 0
0.720000 0.280000 0
0.740000 0.280000 0
0.760000 0.280000 0
0.780000 0.280000 0
0.800000 0.280000 0
0.820000 0.280000 0
0.840000 0.280000 0
0.860000 0.280000 0
0.880000 0.280000 0
0.900000 0.280000 0
0.920000 0.280000 0
0.940000 0.280000 0
0.960000 0.280000 0
0.980000 0.280000 0
1.000000 0.280000 0
0.500000 0.300000 0
0.520000 0.300000 0
0.540000 0.300000 0
0.560000 0.300000 0
0.580000 0.300000 0
0.600000 0.300000 0
0.620000 0.300000 0
0.640000 0.300000 0
0.660000 0.300000 0
0.680000 0.300000 0
0.700000 0.300000 0
0.720000 0.300000 0
0.740000 0.300000 0
0.760000 0.300000 0
0.780000 0.300000 0
0.800000 0.300000 0
0.820000 0.300000 0
0.840000 0.300000 0
0.860000 0.300000 0
0.880000 0.300000 0
0.900000 0.300000 0
0.920000 0.300000 0
0.940000 0.300000 0
0.960000 0.300000 0
0.980000 0.300000 0
1.000000 0.300000 0
0.500000 0.320000 0
0.520000 0.320000 0
0.540000 0.320000 0
0.560000 0.320000 0
0.580000 0.320000 0
0.600000 0.320000 0
0.620000 0.320000 0
0.640000 0.320000 0
0.660000 0.320000 0
0.680000 0.320000 0
0.700000 0.320000 0
0.720000 0.320000 0
0.740000 0.320000 0
0.760000 0.320000 0
0.780000 0.320000 0
0.800000 0.320000 0
0.820000 0.320000 0
0.840000 0.320000 0
0.860000 0.320000 0
0.880000 0.320000 0
0.900000 0.320000 0
0.920000 0.320000 0
0.940000 0.320000 0
0.960000 0.320000 0
0.980000 0.320000 0
1.000000 0.320000 0
0.500000 0.340000 0
0.520000 0.340000 0
0.540000 0.340000 0
0.560000 0.340000 0
0.580000 0.340000 0
0.600000 0.340000 0
0.620000 0.340000 0
0.640000 0.340000 0
0.660000 0.340000 0
0.680000 0.340000 0
0.700000 0.340000 0
0.720000 0.340000 0
0.740000 0.340000 0
0.760000 0.340000 0
0.780000 0.340000 0
0.800000 0.340000 0
0.820000 0.340000 0
0.840000 0.340000 0
0.860000 0.340000 0
0.880000 0.340000 0
0.900000 0.340000 0
0.920000 0.340000 0
0.940000 0.340000 0
0.960000 0.340000 0
0.980000 0.340000 0
1.000000 0.340000 0
0.500000 0.360000 0
0.520000 0.360000 0
0.540000 0.360000 0
0.560000 0.360000 0
0.580000 0.360000 0
0.600000 0.360000 0
0.620000 0.360000 0
0.640000 0.360000 0
0.660000 0.360000 0
0.680000 0.360000 0
0.700000 0.360000 0
0.720000 0.360000 0
0.740000 0.360000 0
0.760000 0.360000 0
0.780000 0.360000 0
0.800000 0.360000 0
0.820000 0.360000 0
0.840000 0.360000 0
0.860000 0.360000 0
0.880000 0.360000 0
0.900000 0.360000 0
0.920000 0.360000 0
0.940000 0.360000 0
0.960000 0.360000 0
0.980000 0.360000 0
1.000000 0.360000 0
0.500000 0.380000 0
0.520000 0.380000 0
0.540000 0.380000 0
0.560000 0.380000 0
0.580000 0.380000 0
0.600000 0.380000 0
0.620000 0.380000 0
0.640000 0.380000 0
0.660000 0.380000 0
0.680000 0.380000 0
0.700000 0.380000 0
0.720000 0.380000 0
0.740000 0.380000 0
0.760000 0.380000 0
0.780000 0.380000 0
0.800000 0.380000 0
0.820000 0.380000 0
0.840000 0.380000 0
0.860000 0.380000 0
0.880000 0.380000 0
0.900000 0.380000 0
0.920000 0.380000 0
0.940000 0.380000 0
0.960000 0.380000 0
0.980000 0.380000 0
1.000000 0.380000 0
0.500000 0.400000 0
0.520000 0.400000 0
0.540000 0.400000 0
0.560000 0.400000 0
0.580000 0.400000 0
0.600000 0.400000 0
0.620000 0.400000 0
0.640000 0.400000 0
0.660000 0.400000 0
0.680000 0.400000 0
0.700000 0.400000 0
0.720000 0.400000 0
0.740000 0.400000 0
0.760000 0.400000 0
0.780000 0.400000 0
0.800000 0.400000 0
0.820000 0.400000 0
0.840000 0.400000 0
0.860000 0.400000 0
0.880000 0.400000 0
0.900000 0.400000 0
0.920000 0.400000 0
0.940000 0.400000 0
0.960000 0.400000 0
0.980000 0.400000 0
1.000000 0.400000 0
0.500000 0.420000 0
0.520000 0.420000 0
0.540000 0.420000 0
0.560000 0.420000 0
0.580000 0.420000 0
0.600000 0.420000 0
0.620000 0.420000 0
0.640000 0.420000 0
0.660000 0.420000 0
0.680000 0.420000 0
0.700000 0.420000 0
0.720000 0.420000 0
0.740000 0.420000 0
0.760000 0.420000 0
0.780000 0.420000 0
0.800000 0.420000 0
0.820000 0.420000 0
0.840000 0.420000 0
0.860000 0.420000 0
0.880000 0.420000 0
0.900000 0.420000 0
0.920000 0.420000 0
0.940000 0.420000 0
0.960000 0.420000 0
0.980000 0.420000 0
1.000000 0.420000 0
0.500000 0.440000 0
0.520000 0.440000 0
0.540000 0.440000 0
0.560000 0.440000 0
0.580000 0.440000 0
0.600000 0.440000 0
0.620000 0.440000 0
0.640000 0.440000 0
0.660000 0.440000 0
0.680000 0.440000 0
0.700000 0.440000 0
0.720000 0.440000 0
0.740000 0.440000 0
0.760000 0.440000 0
0.780000 0.440000 0
0.800000 0.440000 0
0.820000 0.440000 0
0.840000 0.440000 0
0.860000 0.440000 0
0.880000 0.440000 0
0.900000 0.440000 0
0.920000 0.440000 0
0.940000 0.440000 0
0.960000 0.440000 0
0.980000 0.440000 0
1.000000 0.440000 0
0.500000 0.460000 0
0.520000 0.460000 0
0.540000 0.460000 0
0.560000 0.460000 0
0.580000 0.460000 0
0.600000 0.460000 0
0.620000 0.460000 0
0.640000 0.460000 0
0.660000 0.460000 0
0.680000 0.460000 0
0.700000 0.460000 0
0.720000 0.460000 0
0.740000 0.460000 0
0.760000 0.460000 0
0.780000 0.460000 0
0.800000 0.460000 0
0.820000 0.460000 0
0.840000 0.460000 0
0.860000 0.460000 0
0.880000 0.460000 0
0.900000 0.460000 0
0.920000 0.460000 0
0.940000 0.460000 0
0.960000 0.460000 0
0.980000 0.460000 0
1.000000 0.460000 0
0.500000 0.480000 0
0.520000 0.480000 0
0.540000 0.480000 0
0.560000 0.480000 0
0.580000 0.480000 0
0.600000 0.480000 0
0.620000 0.480000 0
0.640000 0.480000 0
0.660000 0.480000 0
0.680000 0.480000 0
0.700000 0.480000 0
0.720000 0.480000 0
0.740000 0.480000 0
0.760000 0.480000 0
0.780000 0.480000 0
0.800000 0.480000 0
0.820000 0.480000 0
0.840000 0.480000 0
0.860000 0.480000 0
0.880000 0.480000 0
0.900000 0.480000 0
0.920000 0.480000 0
0.940000 0.480000 0
0.960000 0.480000 0
0.980000 0.480000 0
1.000000 0.480000 0
0.500000 0.500000 0
0.520000 0.500000 0
0.540000 0.500000 0
0.560000 0.500000 0
0.580000 0.500000 0
0.600000 0.500000 0
0.620000 0.500000 0
0.640000 0.500000 0
0.660000 0.500000 0
0.680000 0.500000 0
0.700000 0.500000 0
0.720000 0.500000 0
0.740000 0.500000 0
0.760000 0.500000 0
0.780000 0.500000 0
0.800000 0.500000 0
0.820000 0.500000 0
0.840000 0.500000 0
0.860000 0.500000 0
0.880000 0.500000 0
0.900000 0.500000 0
0.920000 0.500000 0
0.940000 0.500000 0
0.960000 0.500000 0
0.980000 0.500000 0
1.000000 0.500000 0
POINT_DATA 676 

VECTORS velocity float
0.000000 0.000000 0
0.000000 0.000000 0
0.000000 0.000000 0
0.000000 0.000000 0
0.000000 0.000000 0
0.000000 0.000000 0
0.000000 0.000000 0
0.000000 0.000000 0
0.000000 0.000000 0
0.000000 0.000000 0
0.000000 0.000000 0
0.000000 0.000000 0
0.000000 0.000000 0
0.000000 0.000000 0
0.000000 0.000000 0
0.000000 0.000000 0
0.000000 0.000000 0
0.000000 0.000000 0
0.000000 0.000000 0
0.000000 0.000000 0
0.000000 0.000000 0
0.000000 0.000000 0
0.000000 0.000000 0
0.000000 0.000000 0
0.000000 0.000000 0
0.000000 0.000000 0
-0.014613 0.000024 0
-0.014578 -0.000051 0
-0.014402 -0.000129 0
-0.014083 -0.000207 0
-0.013621 -0.000284 0
-0.013023 -0.000357 0
-0.012295 -0.000425 0
-0.011450 -0.000485 0
-0.010504 -0.000536 0
-0.009475 -0.000576 0
-0.008386 -0.000602 0
-0.007262 -0.000613 0
-0.006130 -0.000609 0
-0.005017 -0.000589 0
-0.003953 -0.000554 0
-0.002963 -0.000503 0
-0.002075 -0.000439 0
-0.001309 -0.000363 0
-0.000684 -0.000278 0
-0.000212 -0.000188 0
0.000102 -0.000097 0
0.000263 -0.000012 0
0.000287 0.000057 0
0.000208 0.000096 0
0.000083 0.000082 0
0.000000 0.000000 0
-0.028024 0.000067 0
-0.027942 -0.000211 0
-0.027599 -0.000496 0
-0.026993 -0.000781 0
-0.026128 -0.001060 0
-0.025012 -0.001326 0
-0.023661 -0.001573 0
-0.022097 -0.001791 0
-0.020348 -0.001975 0
-0.018449 -0.002118 0
-0.016439 -0.002213 0
-0.014363 -0.002256 0
-0.012269 -0.002245 0
-0.010207 -0.002177 0
-0.008226 -0.002054 0
-0.006375 -0.001878 0
-0.004697 -0.001654 0
-0.003233 -0.001391 0
-0.002013 -0.001097 0
-0.001058 -0.000787 0
-0.000375 -0.000475 0
0.000041 -0.000185 0
0.000220 0.000055 0
0.000212 0.000204 0
0.000099 0.000208 0
0.000000 0.000000 0
-0.040465 0.000114 0
-0.040333 -0.000476 0
-0.039839 -0.001077 0
-0.038980 -0.001678 0
-0.037761 -0.002265 0
-0.036197 -0.002824 0
-0.034308 -0.003340 0
-0.032125 -0.003799 0
-0.029687 -0.004185 0
-0.027039 -0.004485 0
-0.024236 -0.004687 0
-0.021338 -0.004783 0
-0.018408 -0.004765 0
-0.015513 -0.004633 0
-0.012720 -0.004386 0
-0.010093 -0.004032 0
-0.007693 -0.003580 0
-0.005571 -0.003047 0
-0.003769 -0.002454 0
-0.002317 -0.001826 0
-0.001224 -0.001196 0
-0.000485 -0.000608 0
-0.000066 -0.000113 0
0.000088 0.000217 0
0.000068 0.000294 0
0.000000 0.000000 0
-0.052136 0.000157 0
-0.051960 -0.000838 0
-0.051333 -0.001849 0
-0.050254 -0.002858 0
-0.048729 -0.003843 0
-0.046776 -0.004779 0
-0.044421 -0.005644 0
-0.041701 -0.006413 0
-0.038662 -0.007061 0
-0.035359 -0.007568 0
-0.031859 -0.007914 0
-0.028232 -0.008085 0
-0.024555 -0.008070 0
-0.020909 -0.007865 0
-0.017374 -0.007473 0
-0.014028 -0.006905 0
-0.010944 -0.006176 0
-0.008186 -0.005314 0
-0.005806 -0.004352 0
-0.003840 -0.003332 0
-0.002304 -0.002307 0
-0.001194 -0.001343 0
-0.000481 -0.000517 0
-0.000108 0.000070 0
0.000013 0.000296 0
0.000000 0.000000 0
-0.063203 0.000203 0
-0.062997 -0.001279 0
-0.062263 -0.002783 0
-0.060999 -0.004282 0
-0.059213 -0.005742 0
-0.056925 -0.007132 0
-0.054165 -0.008416 0
-0.050973 -0.009558 0
-0.047403 -0.010526 0
-0.043517 -0.011287 0
-0.039389 -0.011815 0
-0.035101 -0.012087 0
-0.030739 -0.012088 0
-0.026395 -0.011814 0
-0.022161 -0.011267 0
-0.018129 -0.010461 0
-0.014381 -0.009422 0
-0.010994 -0.008185 0
-0.008029 -0.006800 0
-0.005531 -0.005328 0
-0.003524 -0.003842 0
-0.002010 -0.002430 0
-0.000966 -0.001200 0
-0.000339 -0.000276 0
-0.000053 0.000187 0
0.000000 0.000000 0
-0.073809 0.000264 0
-0.073595 -0.001778 0
-0.072783 -0.003848 0
-0.071371 -0.005908 0
-0.069368 -0.007916 0
-0.066794 -0.009828 0
-0.063681 -0.011596 0
-0.060074 -0.013175 0
-0.056029 -0.014517 0
-0.051616 -0.015581 0
-0.046912 -0.016331 0
-0.042009 -0.016736 0
-0.037001 -0.016776 0
-0.031992 -0.016443 0
-0.027083 -0.015740 0
-0.022377 -0.014685 0
-0.017969 -0.013311 0
-0.013947 -0.011666 0
-0.010384 -0.009815 0
-0.007333 -0.007837 0
-0.004831 -0.005827 0
-0.002887 -0.003901 0
-0.001486 -0.002188 0
-0.000586 -0.000843 0
-0.000121 -0.000044 0
0.000000 0.000000 0
-0.084071 0.000361 0
-0.083876 -0.002306 0
-0.083021 -0.005008 0
-0.081501 -0.007696 0
-0.079325 -0.010319 0
-0.076513 -0.012818 0
-0.073097 -0.015135 0
-0.069123 -0.017210 0
-0.064651 -0.018985 0
-0.059752 -0.020404 0
-0.054511 -0.021422 0
-0.049024 -0.021998 0
-0.043396 -0.022105 0
-0.037736 -0.021732 0
-0.032160 -0.020882 0
-0.026779 -0.019575 0
-0.021703 -0.017851 0
-0.017031 -0.015771 0
-0.012848 -0.013414 0
-0.009222 -0.010880 0
-0.006199 -0.008288 0
-0.003801 -0.005776 0
-0.002025 -0.003501 0
-0.000838 -0.001642 0
-0.000188 -0.000400 0
0.000000 0.000000 0
-0.094082 0.000523 0
-0.093941 -0.002828 0
-0.093082 -0.006223 0
-0.091498 -0.009603 0
-0.089195 -0.012904 0
-0.086191 -0.016056 0
-0.082519 -0.018986 0
-0.078223 -0.021621 0
-0.073363 -0.023888 0
-0.068015 -0.025721 0
-0.062267 -0.027058 0
-0.056219 -0.027851 0
-0.049982 -0.028064 0
-0.043677 -0.027679 0
-0.037428 -0.026697 0
-0.031361 -0.025141 0
-0.025597 -0.023059 0
-0.020250 -0.020522 0
-0.015420 -0.017624 0
-0.011190 -0.014485 0
-0.007620 -0.011248 0
-0.004746 -0.008075 0
-0.002576 -0.005151 0
-0.001093 -0.002679 0
-0.000255 -0.000882 0
0.000000 0.000000 0
-0.103911 0.000783 0
-0.103865 -0.003306 0
-0.103045 -0.007451 0
-0.101444 -0.011583 0
-0.099063 -0.015625 0
-0.095917 -0.019494 0
-0.092035 -0.023104 0
-0.087460 -0.026365 0
-0.082253 -0.029192 0
-0.076488 -0.031501 0
-0.070256 -0.033218 0
-0.063661 -0.034282 0
-0.056823 -0.034647 0
-0.049869 -0.034286 0
-0.042936 -0.033198 0
-0.036161 -0.031406 0
-0.029682 -0.028962 0
-0.023629 -0.025948 0
-0.018119 -0.022474 0
-0.013250 -0.018680 0
-0.009102 -0.014732 0
-0.005725 -0.010820 0
-0.003143 -0.007153 0
-0.001352 -0.003963 0
-0.000322 -0.001493 0
0.000000 0.000000 0
-0.113606 0.001184 0
-0.113699 -0.003694 0
-0.112969 -0.008644 0
-0.111401 -0.013586 0
-0.108994 -0.018432 0
-0.105756 -0.023084 0
-0.101714 -0.027443 0
-0.096906 -0.031403 0
-0.091390 -0.034861 0
-0.085239 -0.037718 0
-0.078546 -0.039885 0
-0.071419 -0.041284 0
-0.063981 -0.041856 0
-0.056371 -0.041566 0
-0.048735 -0.040405 0
-0.041227 -0.038395 0
-0.034000 -0.035592 0
-0.027202 -0.032086 0
-0.020970 -0.028002 0
-0.015424 -0.023501 0
-0.010661 -0.018773 0
-0.006750 -0.014034 0
-0.003733 -0.009524 0
-0.001619 -0.005501 0
-0.000389 -0.002235 0
0.000000 0.000000 0
-0.123189 0.001769 0
-0.123471 -0.003943 0
-0.122882 -0.009749 0
-0.121404 -0.015558 0
-0.119026 -0.021270 0
-0.115752 -0.026774 0
-0.111602 -0.031954 0
-0.106609 -0.036689 0
-0.100826 -0.040859 0
-0.094325 -0.044345 0
-0.087195 -0.047039 0
-0.079549 -0.048847 0
-0.071516 -0.049695 0
-0.063240 -0.049532 0
-0.054882 -0.048342 0
-0.046610 -0.046141 0
-0.038597 -0.042987 0
-0.031010 -0.038978 0
-0.024010 -0.034252 0
-0.017740 -0.028990 0
-0.012319 -0.023406 0
-0.007838 -0.017747 0
-0.004356 -0.012285 0
-0.001899 -0.007307 0
-0.000459 -0.003112 0
0.000000 0.000000 0
-0.132659 0.002588 0
-0.133181 -0.004001 0
-0.132791 -0.010711 0
-0.131460 -0.017443 0
-0.129172 -0.024083 0
-0.125923 -0.030508 0
-0.121722 -0.036586 0
-0.116598 -0.042178 0
-0.110595 -0.047145 0
-0.103782 -0.051349 0
-0.096246 -0.054660 0
-0.088100 -0.056963 0
-0.079476 -0.058165 0
-0.070528 -0.058199 0
-0.061429 -0.057035 0
-0.052363 -0.054680 0
-0.043522 -0.051192 0
-0.035099 -0.046672 0
-0.027279 -0.041272 0
-0.020232 -0.035193 0
-0.014102 -0.028675 0
-0.009006 -0.021997 0
-0.005024 -0.015463 0
-0.002198 -0.009398 0
-0.000534 -0.004133 0
0.000000 0.000000 0
-0.141987 0.003692 0
-0.142805 -0.003811 0
-0.142671 -0.011470 0
-0.141551 -0.019177 0
-0.139417 -0.026807 0
-0.136257 -0.034224 0
-0.132070 -0.041279 0
-0.126873 -0.047816 0
-0.120706 -0.053674 0
-0.113628 -0.058694 0
-0.105723 -0.062721 0
-0.097102 -0.065618 0
-0.087900 -0.067266 0
-0.078279 -0.067579 0
-0.068423 -0.066507 0
-0.058533 -0.064048 0
-0.048825 -0.060251 0
-0.039515 -0.055220 0
-0.030818 -0.049119 0
-0.022935 -0.042167 0
-0.016039 -0.034632 0
-0.010276 -0.026826 0
-0.005750 -0.019093 0
-0.002524 -0.011797 0
-0.000615 -0.005310 0
0.000000 0.000000 0
-0.151119 0.005134 0
-0.152288 -0.003316 0
-0.152472 -0.011965 0
-0.151627 -0.020697 0
-0.149716 -0.029377 0
-0.146714 -0.037856 0
-0.142609 -0.045969 0
-0.137409 -0.053542 0
-0.131141 -0.060391 0
-0.123854 -0.066332 0
-0.115627 -0.071186 0
-0.106566 -0.074787 0
-0.096809 -0.076988 0
-0.086522 -0.077676 0
-0.075900 -0.076780 0
-0.065163 -0.074279 0
-0.054548 -0.070210 0
-0.044301 -0.064678 0
-0.034668 -0.057853 0
-0.025884 -0.049972 0
-0.018159 -0.041334 0
-0.011669 -0.032286 0
-0.006548 -0.023215 0
-0.002882 -0.014533 0
-0.000705 -0.006657 0
0.000000 0.000000 0
-0.159975 0.006964 0
-0.161548 -0.002458 0
-0.162111 -0.012131 0
-0.161607 -0.021933 0
-0.159990 -0.031721 0
-0.157220 -0.041330 0
-0.153276 -0.050584 0
-0.148147 -0.059285 0
-0.141850 -0.067230 0
-0.134422 -0.074207 0
-0.125933 -0.080009 0
-0.116481 -0.084436 0
-0.106203 -0.087310 0
-0.095269 -0.088488 0
-0.083883 -0.087866 0
-0.072282 -0.085401 0
-0.060727 -0.081113 0
-0.049494 -0.075100 0
-0.038866 -0.067536 0
-0.029114 -0.058676 0
-0.020489 -0.048847 0
-0.013206 -0.038436 0
-0.007432 -0.027880 0
-0.003281 -0.017641 0
-0.000805 -0.008192 0
0.000000 0.000000 0
-0.168448 0.009233 0
-0.170477 -0.001180 0
-0.171476 -0.011906 0
-0.171380 -0.022818 0
-0.170128 -0.033764 0
-0.167670 -0.044570 0
-0.163967 -0.055042 0
-0.158995 -0.064967 0
-0.152752 -0.074116 0
-0.145264 -0.082249 0
-0.136585 -0.089127 0
-0.126807 -0.094516 0
-0.116058 -0.098200 0
-0.104511 -0.099996 0
-0.092377 -0.099767 0
-0.079908 -0.097435 0
-0.067388 -0.092998 0
-0.055127 -0.086539 0
-0.043444 -0.078233 0
-0.032656 -0.068349 0
-0.023058 -0.057241 0
-0.014908 -0.045343 0
-0.008416 -0.033141 0
-0.003726 -0.021160 0
-0.000918 -0.009938 0
0.000000 0.000000 0
-0.176407 0.011984 0
-0.178938 0.000570 0
-0.180427 -0.011229 0
-0.180802 -0.023281 0
-0.179988 -0.035430 0
-0.177922 -0.047492 0
-0.174546 -0.059259 0
-0.169822 -0.070500 0
-0.163729 -0.080960 0
-0.156274 -0.090374 0
-0.147495 -0.098466 0
-0.137471 -0.104963 0
-0.126321 -0.109607 0
-0.114213 -0.112169 0
-0.101364 -0.112469 0
-0.088038 -0.110389 0
-0.074543 -0.105894 0
-0.061219 -0.099044 0
-0.048429 -0.090007 0
-0.036536 -0.079063 0
-0.025888 -0.066594 0
-0.016794 -0.053078 0
-0.009511 -0.039062 0
-0.004225 -0.025139 0
-0.001045 -0.011918 0
0.000000 0.000000 0
-0.183695 0.015256 0
-0.186764 0.002840 0
-0.188793 -0.010042 0
-0.189697 -0.023257 0
-0.189393 -0.036643 0
-0.187799 -0.050012 0
-0.184842 -0.063142 0
-0.180464 -0.075785 0
-0.174624 -0.087664 0
-0.167309 -0.098483 0
-0.158536 -0.107930 0
-0.148366 -0.115691 0
-0.136904 -0.121458 0
-0.124310 -0.124953 0
-0.110801 -0.125942 0
-0.096650 -0.124256 0
-0.082185 -0.119816 0
-0.067779 -0.112653 0
-0.053837 -0.102917 0
-0.040776 -0.090890 0
-0.029001 -0.076983 0
-0.018882 -0.061719 0
-0.010732 -0.045710 0
-0.004785 -0.029627 0
-0.001189 -0.014163 0
0.000000 0.000000 0
-0.190134 0.019074 0
-0.193769 0.005669 0
-0.196378 -0.008295 0
-0.197865 -0.022681 0
-0.198135 -0.037329 0
-0.197092 -0.052043 0
-0.194646 -0.066594 0
-0.190718 -0.080718 0
-0.185244 -0.094116 0
-0.178188 -0.106463 0
-0.169543 -0.117409 0
-0.159347 -0.126595 0
-0.147686 -0.133662 0
-0.134706 -0.138272 0
-0.120616 -0.140130 0
-0.105695 -0.139005 0
-0.090288 -0.134765 0
-0.074798 -0.127392 0
-0.059673 -0.117011 0
-0.045388 -0.103899 0
-0.032413 -0.088488 0
-0.021187 -0.071347 0
-0.012088 -0.053159 0
-0.005411 -0.034682 0
-0.001351 -0.016703 0
0.000000 0.000000 0
-0.195536 0.023454 0
-0.199749 0.009083 0
-0.202966 -0.005946 0
-0.205079 -0.021499 0
-0.205981 -0.037416 0
-0.205564 -0.053500 0
-0.203719 -0.069517 0
-0.200346 -0.085187 0
-0.195358 -0.100195 0
-0.188691 -0.114184 0
-0.180312 -0.126771 0
-0.170230 -0.137548 0
-0.158507 -0.146099 0
-0.145266 -0.152023 0
-0.130704 -0.154952 0
-0.115098 -0.154584 0
-0.098803 -0.150714 0
-0.082249 -0.143267 0
-0.065930 -0.132326 0
-0.050379 -0.118150 0
-0.036136 -0.101185 0
-0.023721 -0.082044 0
-0.013590 -0.061486 0
-0.006109 -0.040364 0
-0.001533 -0.019574 0
0.000000 0.000000 0
-0.199699 0.028396 0
-0.204489 0.013098 0
-0.208326 -0.002966 0
-0.211093 -0.019666 0
-0.212676 -0.036843 0
-0.212950 -0.054305 0
-0.211792 -0.071812 0
-0.209078 -0.089079 0
-0.204699 -0.105771 0
-0.198561 -0.121508 0
-0.190600 -0.135870 0
-0.180792 -0.148400 0
-0.169167 -0.158626 0
-0.155820 -0.166074 0
-0.140926 -0.170297 0
-0.124751 -0.170907 0
-0.107654 -0.167613 0
-0.090087 -0.160264 0
-0.072585 -0.148881 0
-0.055740 -0.133693 0
-0.040175 -0.115145 0
-0.026494 -0.093893 0
-0.015247 -0.070771 0
-0.006886 -0.046738 0
-0.001738 -0.022812 0
0.000000 0.000000 0
-0.202416 0.033882 0
-0.207764 0.017711 0
-0.212217 0.000658 0
-0.215653 -0.017149 0
-0.217948 -0.035559 0
-0.218968 -0.054385 0
-0.218573 -0.073388 0
-0.216620 -0.092279 0
-0.212973 -0.110712 0
-0.207509 -0.128284 0
-0.200128 -0.144540 0
-0.190771 -0.158981 0
-0.179428 -0.171072 0
-0.166158 -0.180263 0
-0.151105 -0.186020 0
-0.134513 -0.187856 0
-0.116736 -0.185378 0
-0.098239 -0.178337 0
-0.079594 -0.166673 0
-0.061455 -0.150560 0
-0.044525 -0.130431 0
-0.029511 -0.106972 0
-0.017066 -0.081095 0
-0.007745 -0.053873 0
-0.001967 -0.026459 0
0.000000 0.000000 0
-0.203488 0.039875 0
-0.209352 0.022899 0
-0.214397 0.004923 0
-0.218497 -0.013935 0
-0.221521 -0.033528 0
-0.223325 -0.053680 0
-0.223758 -0.074161 0
-0.222656 -0.094679 0
-0.219860 -0.114882 0
-0.215215 -0.134353 0
-0.208586 -0.152607 0
-0.199870 -0.169101 0
-0.189014 -0.183240 0
-0.176032 -0.194397 0
-0.161026 -0.201941 0
-0.144208 -0.205276 0
-0.125912 -0.203888 0
-0.106608 -0.197406 0
-0.086896 -0.185666 0
-0.067488 -0.168762 0
-0.049175 -0.147089 0
-0.032771 -0.121353 0
-0.019051 -0.092537 0
-0.008692 -0.061837 0
-0.002222 -0.030557 0
0.000000 0.000000 0
-0.202724 0.046316 0
-0.209041 0.028620 0
-0.214632 0.009804 0
-0.219371 -0.010025 0
-0.223118 -0.030731 0
-0.225727 -0.052148 0
-0.227035 -0.074058 0
-0.226862 -0.096177 0
-0.225026 -0.118153 0
-0.221342 -0.139558 0
-0.215637 -0.159885 0
-0.207762 -0.178553 0
-0.197616 -0.194910 0
-0.185157 -0.208252 0
-0.170437 -0.217844 0
-0.153621 -0.222970 0
-0.135012 -0.222978 0
-0.115067 -0.217353 0
-0.094406 -0.205792 0
-0.073791 -0.188281 0
-0.054101 -0.165148 0
-0.036268 -0.137096 0
-0.021204 -0.105174 0
-0.009730 -0.070702 0
-0.002504 -0.035151 0
0.000000 0.000000 0
-0.199957 0.053125 0
-0.206642 0.034807 0
-0.212709 0.015253 0
-0.218036 -0.005448 0
-0.222478 -0.027172 0
-0.225890 -0.049764 0
-0.228098 -0.073026 0
-0.228914 -0.096687 0
-0.228132 -0.120403 0
-0.225539 -0.143743 0
-0.220925 -0.166187 0
-0.214097 -0.187122 0
-0.204894 -0.205845 0
-0.193216 -0.221575 0
-0.179052 -0.233477 0
-0.162506 -0.240701 0
-0.143832 -0.242442 0
-0.123461 -0.238013 0
-0.102013 -0.226942 0
-0.080295 -0.209066 0
-0.059268 -0.184612 0
-0.039989 -0.154249 0
-0.023525 -0.119075 0
-0.010861 -0.080537 0
-0.002816 -0.040287 0
0.000000 0.000000 0

CELL_DATA 625 
SCALARS pressure float 1 
LOOKUP_TABLE default 
0.011199
0.011910
0.012618
0.013309
0.013968
0.014580
0.015132
0.015610
0.016002
0.016299
0.016493
0.016580
0.016562
0.016442
0.016228
0.015933
0.015572
0.015165
0.014735
0.014307
0.013910
0.013574
0.013328
0.013197
0.013184
0.011175
0.011822
0.012465
0.013093
0.013691
0.014247
0.014747
0.015181
0.015537
0.015807
0.015985
0.016069
0.016059
0.015959
0.015777
0.015524
0.015214
0.014865
0.014498
0.014134
0.013797
0.013512
0.013301
0.013183
0.013172
0.011137
0.011732
0.012323
0.012900
0.013450
0.013962
0.014422
0.014822
0.015150
0.015400
0.015566
0.015646
0.015641
0.015554
0.015393
0.015168
0.014893
0.014583
0.014257
0.013933
0.013632
0.013375
0.013180
0.013063
0.013042
0.011080
0.011633
0.012183
0.012721
0.013234
0.013712
0.014144
0.014518
0.014826
0.015061
0.015218
0.015294
0.015291
0.015212
0.015064
0.014856
0.014602
0.014315
0.014011
0.013709
0.013425
0.013176
0.012979
0.012849
0.012799
0.010996
0.011515
0.012034
0.012543
0.013030
0.013485
0.013896
0.014253
0.014549
0.014774
0.014925
0.014999
0.014997
0.014922
0.014780
0.014580
0.014335
0.014057
0.013762
0.013465
0.013181
0.012926
0.012713
0.012555
0.012462
0.010874
0.011368
0.011865
0.012354
0.012824
0.013264
0.013664
0.014013
0.014303
0.014524
0.014674
0.014747
0.014746
0.014672
0.014531
0.014333
0.014088
0.013809
0.013509
0.013204
0.012907
0.012633
0.012392
0.012195
0.012051
0.010701
0.011178
0.011661
0.012138
0.012600
0.013036
0.013433
0.013782
0.014072
0.014297
0.014449
0.014525
0.014526
0.014452
0.014310
0.014108
0.013857