# vtk DataFile Version 2.0
generated by CFD-lab course output (written by Tobias Neckel) 
ASCII

DATASET STRUCTURED_GRID
DIMENSIONS  26 26 1 
POINTS 676 float

0.000000 0.000000 0
0.020000 0.000000 0
0.040000 0.000000 0
0.060000 0.000000 0
0.080000 0.000000 0
0.100000 0.000000 0
0.120000 0.000000 0
0.140000 0.000000 0
0.160000 0.000000 0
0.180000 0.000000 0
0.200000 0.000000 0
0.220000 0.000000 0
0.240000 0.000000 0
0.260000 0.000000 0
0.280000 0.000000 0
0.300000 0.000000 0
0.320000 0.000000 0
0.340000 0.000000 0
0.360000 0.000000 0
0.380000 0.000000 0
0.400000 0.000000 0
0.420000 0.000000 0
0.440000 0.000000 0
0.460000 0.000000 0
0.480000 0.000000 0
0.500000 0.000000 0
0.000000 0.020000 0
0.020000 0.020000 0
0.040000 0.020000 0
0.060000 0.020000 0
0.080000 0.020000 0
0.100000 0.020000 0
0.120000 0.020000 0
0.140000 0.020000 0
0.160000 0.020000 0
0.180000 0.020000 0
0.200000 0.020000 0
0.220000 0.020000 0
0.240000 0.020000 0
0.260000 0.020000 0
0.280000 0.020000 0
0.300000 0.020000 0
0.320000 0.020000 0
0.340000 0.020000 0
0.360000 0.020000 0
0.380000 0.020000 0
0.400000 0.020000 0
0.420000 0.020000 0
0.440000 0.020000 0
0.460000 0.020000 0
0.480000 0.020000 0
0.500000 0.020000 0
0.000000 0.040000 0
0.020000 0.040000 0
0.040000 0.040000 0
0.060000 0.040000 0
0.080000 0.040000 0
0.100000 0.040000 0
0.120000 0.040000 0
0.140000 0.040000 0
0.160000 0.040000 0
0.180000 0.040000 0
0.200000 0.040000 0
0.220000 0.040000 0
0.240000 0.040000 0
0.260000 0.040000 0
0.280000 0.040000 0
0.300000 0.040000 0
0.320000 0.040000 0
0.340000 0.040000 0
0.360000 0.040000 0
0.380000 0.040000 0
0.400000 0.040000 0
0.420000 0.040000 0
0.440000 0.040000 0
0.460000 0.040000 0
0.480000 0.040000 0
0.500000 0.040000 0
0.000000 0.060000 0
0.020000 0.060000 0
0.040000 0.060000 0
0.060000 0.060000 0
0.080000 0.060000 0
0.100000 0.060000 0
0.120000 0.060000 0
0.140000 0.060000 0
0.160000 0.060000 0
0.180000 0.060000 0
0.200000 0.060000 0
0.220000 0.060000 0
0.240000 0.060000 0
0.260000 0.060000 0
0.280000 0.060000 0
0.300000 0.060000 0
0.320000 0.060000 0
0.340000 0.060000 0
0.360000 0.060000 0
0.380000 0.060000 0
0.400000 0.060000 0
0.420000 0.060000 0
0.440000 0.060000 0
0.460000 0.060000 0
0.480000 0.060000 0
0.500000 0.060000 0
0.000000 0.080000 0
0.020000 0.080000 0
0.040000 0.080000 0
0.060000 0.080000 0
0.080000 0.080000 0
0.100000 0.080000 0
0.120000 0.080000 0
0.140000 0.080000 0
0.160000 0.080000 0
0.180000 0.080000 0
0.200000 0.080000 0
0.220000 0.080000 0
0.240000 0.080000 0
0.260000 0.080000 0
0.280000 0.080000 0
0.300000 0.080000 0
0.320000 0.080000 0
0.340000 0.080000 0
0.360000 0.080000 0
0.380000 0.080000 0
0.400000 0.080000 0
0.420000 0.080000 0
0.440000 0.080000 0
0.460000 0.080000 0
0.480000 0.080000 0
0.500000 0.080000 0
0.000000 0.100000 0
0.020000 0.100000 0
0.040000 0.100000 0
0.060000 0.100000 0
0.080000 0.100000 0
0.100000 0.100000 0
0.120000 0.100000 0
0.140000 0.100000 0
0.160000 0.100000 0
0.180000 0.100000 0
0.200000 0.100000 0
0.220000 0.100000 0
0.240000 0.100000 0
0.260000 0.100000 0
0.280000 0.100000 0
0.300000 0.100000 0
0.320000 0.100000 0
0.340000 0.100000 0
0.360000 0.100000 0
0.380000 0.100000 0
0.400000 0.100000 0
0.420000 0.100000 0
0.440000 0.100000 0
0.460000 0.100000 0
0.480000 0.100000 0
0.500000 0.100000 0
0.000000 0.120000 0
0.020000 0.120000 0
0.040000 0.120000 0
0.060000 0.120000 0
0.080000 0.120000 0
0.100000 0.120000 0
0.120000 0.120000 0
0.140000 0.120000 0
0.160000 0.120000 0
0.180000 0.120000 0
0.200000 0.120000 0
0.220000 0.120000 0
0.240000 0.120000 0
0.260000 0.120000 0
0.280000 0.120000 0
0.300000 0.120000 0
0.320000 0.120000 0
0.340000 0.120000 0
0.360000 0.120000 0
0.380000 0.120000 0
0.400000 0.120000 0
0.420000 0.120000 0
0.440000 0.120000 0
0.460000 0.120000 0
0.480000 0.120000 0
0.500000 0.120000 0
0.000000 0.140000 0
0.020000 0.140000 0
0.040000 0.140000 0
0.060000 0.140000 0
0.080000 0.140000 0
0.100000 0.140000 0
0.120000 0.140000 0
0.140000 0.140000 0
0.160000 0.140000 0
0.180000 0.140000 0
0.200000 0.140000 0
0.220000 0.140000 0
0.240000 0.140000 0
0.260000 0.140000 0
0.280000 0.140000 0
0.300000 0.140000 0
0.320000 0.140000 0
0.340000 0.140000 0
0.360000 0.140000 0
0.380000 0.140000 0
0.400000 0.140000 0
0.420000 0.140000 0
0.440000 0.140000 0
0.460000 0.140000 0
0.480000 0.140000 0
0.500000 0.140000 0
0.000000 0.160000 0
0.020000 0.160000 0
0.040000 0.160000 0
0.060000 0.160000 0
0.080000 0.160000 0
0.100000 0.160000 0
0.120000 0.160000 0
0.140000 0.160000 0
0.160000 0.160000 0
0.180000 0.160000 0
0.200000 0.160000 0
0.220000 0.160000 0
0.240000 0.160000 0
0.260000 0.160000 0
0.280000 0.160000 0
0.300000 0.160000 0
0.320000 0.160000 0
0.340000 0.160000 0
0.360000 0.160000 0
0.380000 0.160000 0
0.400000 0.160000 0
0.420000 0.160000 0
0.440000 0.160000 0
0.460000 0.160000 0
0.480000 0.160000 0
0.500000 0.160000 0
0.000000 0.180000 0
0.020000 0.180000 0
0.040000 0.180000 0
0.060000 0.180000 0
0.080000 0.180000 0
0.100000 0.180000 0
0.120000 0.180000 0
0.140000 0.180000 0
0.160000 0.180000 0
0.180000 0.180000 0
0.200000 0.180000 0
0.220000 0.180000 0
0.240000 0.180000 0
0.260000 0.180000 0
0.280000 0.180000 0
0.300000 0.180000 0
0.320000 0.180000 0
0.340000 0.180000 0
0.360000 0.180000 0
0.380000 0.180000 0
0.400000 0.180000 0
0.420000 0.180000 0
0.440000 0.180000 0
0.460000 0.180000 0
0.480000 0.180000 0
0.500000 0.180000 0
0.000000 0.200000 0
0.020000 0.200000 0
0.040000 0.200000 0
0.060000 0.200000 0
0.080000 0.200000 0
0.100000 0.200000 0
0.120000 0.200000 0
0.140000 0.200000 0
0.160000 0.200000 0
0.180000 0.200000 0
0.200000 0.200000 0
0.220000 0.200000 0
0.240000 0.200000 0
0.260000 0.200000 0
0.280000 0.200000 0
0.300000 0.200000 0
0.320000 0.200000 0
0.340000 0.200000 0
0.360000 0.200000 0
0.380000 0.200000 0
0.400000 0.200000 0
0.420000 0.200000 0
0.440000 0.200000 0
0.460000 0.200000 0
0.480000 0.200000 0
0.500000 0.200000 0
0.000000 0.220000 0
0.020000 0.220000 0
0.040000 0.220000 0
0.060000 0.220000 0
0.080000 0.220000 0
0.100000 0.220000 0
0.120000 0.220000 0
0.140000 0.220000 0
0.160000 0.220000 0
0.180000 0.220000 0
0.200000 0.220000 0
0.220000 0.220000 0
0.240000 0.220000 0
0.260000 0.220000 0
0.280000 0.220000 0
0.300000 0.220000 0
0.320000 0.220000 0
0.340000 0.220000 0
0.360000 0.220000 0
0.380000 0.220000 0
0.400000 0.220000 0
0.420000 0.220000 0
0.440000 0.220000 0
0.460000 0.220000 0
0.480000 0.220000 0
0.500000 0.220000 0
0.000000 0.240000 0
0.020000 0.240000 0
0.040000 0.240000 0
0.060000 0.240000 0
0.080000 0.240000 0
0.100000 0.240000 0
0.120000 0.240000 0
0.140000 0.240000 0
0.160000 0.240000 0
0.180000 0.240000 0
0.200000 0.240000 0
0.220000 0.240000 0
0.240000 0.240000 0
0.260000 0.240000 0
0.280000 0.240000 0
0.300000 0.240000 0
0.320000 0.240000 0
0.340000 0.240000 0
0.360000 0.240000 0
0.380000 0.240000 0
0.400000 0.240000 0
0.420000 0.240000 0
0.440000 0.240000 0
0.460000 0.240000 0
0.480000 0.240000 0
0.500000 0.240000 0
0.000000 0.260000 0
0.020000 0.260000 0
0.040000 0.260000 0
0.060000 0.260000 0
0.080000 0.260000 0
0.100000 0.260000 0
0.120000 0.260000 0
0.140000 0.260000 0
0.160000 0.260000 0
0.180000 0.260000 0
0.200000 0.260000 0
0.220000 0.260000 0
0.240000 0.260000 0
0.260000 0.260000 0
0.280000 0.260000 0
0.300000 0.260000 0
0.320000 0.260000 0
0.340000 0.260000 0
0.360000 0.260000 0
0.380000 0.260000 0
0.400000 0.260000 0
0.420000 0.260000 0
0.440000 0.260000 0
0.460000 0.260000 0
0.480000 0.260000 0
0.500000 0.260000 0
0.000000 0.280000 0
0.020000 0.280000 0
0.040000 0.280000 0
0.060000 0.280000 0
0.080000 0.280000 0
0.100000 0.280000 0
0.120000 0.280000 0
0.140000 0.280000 0
0.160000 0.280000 0
0.180000 0.280000 0
0.200000 0.280000 0
0.220000 0.280000 0
0.240000 0.280000 0
0.260000 0.280000 0
0.280000 0.280000 0
0.300000 0.280000 0
0.320000 0.280000 0
0.340000 0.280000 0
0.360000 0.280000 0
0.380000 0.280000 0
0.400000 0.280000 0
0.420000 0.280000 0
0.440000 0.280000 0
0.460000 0.280000 0
0.480000 0.280000 0
0.500000 0.280000 0
0.000000 0.300000 0
0.020000 0.300000 0
0.040000 0.300000 0
0.060000 0.300000 0
0.080000 0.300000 0
0.100000 0.300000 0
0.120000 0.300000 0
0.140000 0.300000 0
0.160000 0.300000 0
0.180000 0.300000 0
0.200000 0.300000 0
0.220000 0.300000 0
0.240000 0.300000 0
0.260000 0.300000 0
0.280000 0.300000 0
0.300000 0.300000 0
0.320000 0.300000 0
0.340000 0.300000 0
0.360000 0.300000 0
0.380000 0.300000 0
0.400000 0.300000 0
0.420000 0.300000 0
0.440000 0.300000 0
0.460000 0.300000 0
0.480000 0.300000 0
0.500000 0.300000 0
0.000000 0.320000 0
0.020000 0.320000 0
0.040000 0.320000 0
0.060000 0.320000 0
0.080000 0.320000 0
0.100000 0.320000 0
0.120000 0.320000 0
0.140000 0.320000 0
0.160000 0.320000 0
0.180000 0.320000 0
0.200000 0.320000 0
0.220000 0.320000 0
0.240000 0.320000 0
0.260000 0.320000 0
0.280000 0.320000 0
0.300000 0.320000 0
0.320000 0.320000 0
0.340000 0.320000 0
0.360000 0.320000 0
0.380000 0.320000 0
0.400000 0.320000 0
0.420000 0.320000 0
0.440000 0.320000 0
0.460000 0.320000 0
0.480000 0.320000 0
0.500000 0.320000 0
0.000000 0.340000 0
0.020000 0.340000 0
0.040000 0.340000 0
0.060000 0.340000 0
0.080000 0.340000 0
0.100000 0.340000 0
0.120000 0.340000 0
0.140000 0.340000 0
0.160000 0.340000 0
0.180000 0.340000 0
0.200000 0.340000 0
0.220000 0.340000 0
0.240000 0.340000 0
0.260000 0.340000 0
0.280000 0.340000 0
0.300000 0.340000 0
0.320000 0.340000 0
0.340000 0.340000 0
0.360000 0.340000 0
0.380000 0.340000 0
0.400000 0.340000 0
0.420000 0.340000 0
0.440000 0.340000 0
0.460000 0.340000 0
0.480000 0.340000 0
0.500000 0.340000 0
0.000000 0.360000 0
0.020000 0.360000 0
0.040000 0.360000 0
0.060000 0.360000 0
0.080000 0.360000 0
0.100000 0.360000 0
0.120000 0.360000 0
0.140000 0.360000 0
0.160000 0.360000 0
0.180000 0.360000 0
0.200000 0.360000 0
0.220000 0.360000 0
0.240000 0.360000 0
0.260000 0.360000 0
0.280000 0.360000 0
0.300000 0.360000 0
0.320000 0.360000 0
0.340000 0.360000 0
0.360000 0.360000 0
0.380000 0.360000 0
0.400000 0.360000 0
0.420000 0.360000 0
0.440000 0.360000 0
0.460000 0.360000 0
0.480000 0.360000 0
0.500000 0.360000 0
0.000000 0.380000 0
0.020000 0.380000 0
0.040000 0.380000 0
0.060000 0.380000 0
0.080000 0.380000 0
0.100000 0.380000 0
0.120000 0.380000 0
0.140000 0.380000 0
0.160000 0.380000 0
0.180000 0.380000 0
0.200000 0.380000 0
0.220000 0.380000 0
0.240000 0.380000 0
0.260000 0.380000 0
0.280000 0.380000 0
0.300000 0.380000 0
0.320000 0.380000 0
0.340000 0.380000 0
0.360000 0.380000 0
0.380000 0.380000 0
0.400000 0.380000 0
0.420000 0.380000 0
0.440000 0.380000 0
0.460000 0.380000 0
0.480000 0.380000 0
0.500000 0.380000 0
0.000000 0.400000 0
0.020000 0.400000 0
0.040000 0.400000 0
0.060000 0.400000 0
0.080000 0.400000 0
0.100000 0.400000 0
0.120000 0.400000 0
0.140000 0.400000 0
0.160000 0.400000 0
0.180000 0.400000 0
0.200000 0.400000 0
0.220000 0.400000 0
0.240000 0.400000 0
0.260000 0.400000 0
0.280000 0.400000 0
0.300000 0.400000 0
0.320000 0.400000 0
0.340000 0.400000 0
0.360000 0.400000 0
0.380000 0.400000 0
0.400000 0.400000 0
0.420000 0.400000 0
0.440000 0.400000 0
0.460000 0.400000 0
0.480000 0.400000 0
0.500000 0.400000 0
0.000000 0.420000 0
0.020000 0.420000 0
0.040000 0.420000 0
0.060000 0.420000 0
0.080000 0.420000 0
0.100000 0.420000 0
0.120000 0.420000 0
0.140000 0.420000 0
0.160000 0.420000 0
0.180000 0.420000 0
0.200000 0.420000 0
0.220000 0.420000 0
0.240000 0.420000 0
0.260000 0.420000 0
0.280000 0.420000 0
0.300000 0.420000 0
0.320000 0.420000 0
0.340000 0.420000 0
0.360000 0.420000 0
0.380000 0.420000 0
0.400000 0.420000 0
0.420000 0.420000 0
0.440000 0.420000 0
0.460000 0.420000 0
0.480000 0.420000 0
0.500000 0.420000 0
0.000000 0.440000 0
0.020000 0.440000 0
0.040000 0.440000 0
0.060000 0.440000 0
0.080000 0.440000 0
0.100000 0.440000 0
0.120000 0.440000 0
0.140000 0.440000 0
0.160000 0.440000 0
0.180000 0.440000 0
0.200000 0.440000 0
0.220000 0.440000 0
0.240000 0.440000 0
0.260000 0.440000 0
0.280000 0.440000 0
0.300000 0.440000 0
0.320000 0.440000 0
0.340000 0.440000 0
0.360000 0.440000 0
0.380000 0.440000 0
0.400000 0.440000 0
0.420000 0.440000 0
0.440000 0.440000 0
0.460000 0.440000 0
0.480000 0.440000 0
0.500000 0.440000 0
0.000000 0.460000 0
0.020000 0.460000 0
0.040000 0.460000 0
0.060000 0.460000 0
0.080000 0.460000 0
0.100000 0.460000 0
0.120000 0.460000 0
0.140000 0.460000 0
0.160000 0.460000 0
0.180000 0.460000 0
0.200000 0.460000 0
0.220000 0.460000 0
0.240000 0.460000 0
0.260000 0.460000 0
0.280000 0.460000 0
0.300000 0.460000 0
0.320000 0.460000 0
0.340000 0.460000 0
0.360000 0.460000 0
0.380000 0.460000 0
0.400000 0.460000 0
0.420000 0.460000 0
0.440000 0.460000 0
0.460000 0.460000 0
0.480000 0.460000 0
0.500000 0.460000 0
0.000000 0.480000 0
0.020000 0.480000 0
0.040000 0.480000 0
0.060000 0.480000 0
0.080000 0.480000 0
0.100000 0.480000 0
0.120000 0.480000 0
0.140000 0.480000 0
0.160000 0.480000 0
0.180000 0.480000 0
0.200000 0.480000 0
0.220000 0.480000 0
0.240000 0.480000 0
0.260000 0.480000 0
0.280000 0.480000 0
0.300000 0.480000 0
0.320000 0.480000 0
0.340000 0.480000 0
0.360000 0.480000 0
0.380000 0.480000 0
0.400000 0.480000 0
0.420000 0.480000 0
0.440000 0.480000 0
0.460000 0.480000 0
0.480000 0.480000 0
0.500000 0.480000 0
0.000000 0.500000 0
0.020000 0.500000 0
0.040000 0.500000 0
0.060000 0.500000 0
0.080000 0.500000 0
0.100000 0.500000 0
0.120000 0.500000 0
0.140000 0.500000 0
0.160000 0.500000 0
0.180000 0.500000 0
0.200000 0.500000 0
0.220000 0.500000 0
0.240000 0.500000 0
0.260000 0.500000 0
0.280000 0.500000 0
0.300000 0.500000 0
0.320000 0.500000 0
0.340000 0.500000 0
0.360000 0.500000 0
0.380000 0.500000 0
0.400000 0.500000 0
0.420000 0.500000 0
0.440000 0.500000 0
0.460000 0.500000 0
0.480000 0.500000 0
0.500000 0.500000 0
POINT_DATA 676 

VECTORS velocity float
0.000000 0.000000 0
0.000000 0.000000 0
0.000000 0.000000 0
0.000000 0.000000 0
0.000000 0.000000 0
0.000000 0.000000 0
0.000000 0.000000 0
0.000000 0.000000 0
0.000000 0.000000 0
0.000000 0.000000 0
0.000000 0.000000 0
0.000000 0.000000 0
0.000000 0.000000 0
0.000000 0.000000 0
0.000000 0.000000 0
0.000000 0.000000 0
0.000000 0.000000 0
0.000000 0.000000 0
0.000000 0.000000 0
0.000000 0.000000 0
0.000000 0.000000 0
0.000000 0.000000 0
0.000000 0.000000 0
0.000000 0.000000 0
0.000000 0.000000 0
0.000000 0.000000 0
0.000000 0.000000 0
0.000061 -0.000060 0
0.000084 -0.000024 0
-0.000009 0.000054 0
-0.000248 0.000142 0
-0.000636 0.000226 0
-0.001161 0.000300 0
-0.001804 0.000362 0
-0.002546 0.000412 0
-0.003365 0.000450 0
-0.004243 0.000477 0
-0.005162 0.000495 0
-0.006105 0.000504 0
-0.007057 0.000506 0
-0.008005 0.000500 0
-0.008935 0.000488 0
-0.009834 0.000470 0
-0.010692 0.000445 0
-0.011495 0.000414 0
-0.012231 0.000377 0
-0.012889 0.000333 0
-0.013457 0.000282 0
-0.013924 0.000226 0
-0.014278 0.000164 0
-0.014511 0.000096 0
-0.014613 0.000024 0
0.000000 0.000000 0
0.000026 -0.000083 0
-0.000071 0.000070 0
-0.000378 0.000332 0
-0.000933 0.000626 0
-0.001739 0.000911 0
-0.002780 0.001167 0
-0.004027 0.001385 0
-0.005448 0.001562 0
-0.007007 0.001698 0
-0.008672 0.001797 0
-0.010409 0.001862 0
-0.012189 0.001895 0
-0.013984 0.001900 0
-0.015768 0.001877 0
-0.017516 0.001830 0
-0.019203 0.001757 0
-0.020807 0.001660 0
-0.022305 0.001539 0
-0.023675 0.001395 0
-0.024894 0.001226 0
-0.025941 0.001035 0
-0.026795 0.000821 0
-0.027438 0.000587 0
-0.027852 0.000335 0
-0.028024 0.000067 0
0.000000 0.000000 0
-0.000055 0.000011 0
-0.000345 0.000379 0
-0.000939 0.000915 0
-0.001865 0.001503 0
-0.003120 0.002074 0
-0.004682 0.002589 0
-0.006515 0.003031 0
-0.008576 0.003393 0
-0.010822 0.003674 0
-0.013206 0.003879 0
-0.015686 0.004012 0
-0.018221 0.004079 0
-0.020772 0.004084 0
-0.023303 0.004031 0
-0.025777 0.003923 0
-0.028162 0.003762 0
-0.030424 0.003547 0
-0.032531 0.003282 0
-0.034452 0.002965 0
-0.036155 0.002598 0
-0.037613 0.002184 0
-0.038797 0.001723 0
-0.039681 0.001221 0
-0.040243 0.000682 0
-0.040465 0.000114 0
0.000000 0.000000 0
-0.000152 0.000260 0
-0.000671 0.000954 0
-0.001592 0.001852 0
-0.002925 0.002809 0
-0.004652 0.003730 0
-0.006743 0.004563 0
-0.009152 0.005280 0
-0.011829 0.005868 0
-0.014723 0.006327 0
-0.017778 0.006661 0
-0.020944 0.006877 0
-0.024170 0.006981 0
-0.027409 0.006981 0
-0.030615 0.006882 0
-0.033744 0.006689 0
-0.036754 0.006404 0
-0.039603 0.006029 0
-0.042252 0.005567 0
-0.044661 0.005019 0
-0.046793 0.004388 0
-0.048612 0.003676 0
-0.050084 0.002889 0
-0.051179 0.002034 0
-0.051870 0.001119 0
-0.052136 0.000157 0
0.000000 0.000000 0
-0.000252 0.000681 0
-0.001014 0.001820 0
-0.002283 0.003170 0
-0.004041 0.004564 0
-0.006253 0.005892 0
-0.008875 0.007089 0
-0.011853 0.008117 0
-0.015129 0.008963 0
-0.018642 0.009622 0
-0.022331 0.010100 0
-0.026139 0.010404 0
-0.030007 0.010544 0
-0.033880 0.010529 0
-0.037706 0.010367 0
-0.041433 0.010062 0
-0.045012 0.009621 0
-0.048395 0.009046 0
-0.051535 0.008340 0
-0.054387 0.007506 0
-0.056907 0.006549 0
-0.059054 0.005474 0
-0.060789 0.004290 0
-0.062078 0.003007 0
-0.062891 0.001639 0
-0.063203 0.000203 0
0.000000 0.000000 0
-0.000350 0.001275 0
-0.001358 0.002985 0
-0.002979 0.004879 0
-0.005167 0.006778 0
-0.007868 0.008564 0
-0.011020 0.010163 0
-0.014558 0.011533 0
-0.018417 0.012657 0
-0.022527 0.013530 0
-0.026821 0.014158 0
-0.031236 0.014552 0
-0.035706 0.014723 0
-0.040172 0.014681 0
-0.044574 0.014436 0
-0.048856 0.013995 0
-0.052962 0.013366 0
-0.056839 0.012552 0
-0.060434 0.011559 0
-0.063696 0.010391 0
-0.066578 0.009054 0
-0.069033 0.007558 0
-0.071019 0.005913 0
-0.072498 0.004136 0
-0.073437 0.002245 0
-0.073809 0.000264 0
0.000000 0.000000 0
-0.000445 0.002039 0
-0.001693 0.004449 0
-0.003663 0.006979 0
-0.006278 0.009452 0
-0.009462 0.011744 0
-0.013136 0.013779 0
-0.017225 0.015514 0
-0.021650 0.016931 0
-0.026336 0.018027 0
-0.031211 0.018809 0
-0.036204 0.019289 0
-0.041246 0.019481 0
-0.046271 0.019398 0
-0.051216 0.019051 0
-0.056019 0.018450 0
-0.060621 0.017604 0
-0.064962 0.016517 0
-0.068987 0.015197 0
-0.072641 0.013650 0
-0.075870 0.011886 0
-0.078626 0.009916 0
-0.080863 0.007756 0
-0.082539 0.005425 0
-0.083618 0.002950 0
-0.084071 0.000361 0
0.000000 0.000000 0
-0.000536 0.002968 0
-0.002015 0.006203 0
-0.004324 0.009464 0
-0.007357 0.012577 0
-0.011013 0.015422 0
-0.015198 0.017926 0
-0.019821 0.020047 0
-0.024796 0.021768 0
-0.030039 0.023092 0
-0.035472 0.024026 0
-0.041018 0.024586 0
-0.046604 0.024790 0
-0.052162 0.024651 0
-0.057624 0.024184 0
-0.062923 0.023400 0
-0.067998 0.022309 0
-0.072785 0.020919 0
-0.077225 0.019237 0
-0.081260 0.017273 0
-0.084834 0.015039 0
-0.087893 0.012550 0
-0.090389 0.009826 0
-0.092277 0.006891 0
-0.093519 0.003777 0
-0.094082 0.000523 0
0.000000 0.000000 0
-0.000621 0.004054 0
-0.002323 0.008237 0
-0.004958 0.012321 0
-0.008393 0.016141 0
-0.012506 0.019585 0
-0.017185 0.022588 0
-0.022326 0.025113 0
-0.027831 0.027149 0
-0.033610 0.028703 0
-0.039578 0.029787 0
-0.045654 0.030421 0
-0.051763 0.030625 0
-0.057831 0.030417 0
-0.063787 0.029812 0
-0.069565 0.028825 0
-0.075096 0.027465 0
-0.080318 0.025744 0
-0.085166 0.023672 0
-0.089580 0.021258 0
-0.093501 0.018518 0
-0.096874 0.015471 0
-0.099646 0.012140 0
-0.101770 0.008555 0
-0.103203 0.004755 0
-0.103911 0.000783 0
0.000000 0.000000 0
-0.000702 0.005291 0
-0.002614 0.010539 0
-0.005560 0.015534 0
-0.009379 0.020125 0
-0.013930 0.024215 0
-0.019083 0.027745 0
-0.024719 0.030692 0
-0.030733 0.033053 0
-0.037026 0.034839 0
-0.043507 0.036070 0
-0.050092 0.036771 0
-0.056701 0.036966 0
-0.063259 0.036675 0
-0.069693 0.035918 0
-0.075933 0.034709 0
-0.081910 0.033062 0
-0.087559 0.030988 0
-0.092814 0.028499 0
-0.097611 0.025609 0
-0.101891 0.022334 0
-0.105593 0.018695 0
-0.108664 0.014722 0
-0.111053 0.010448 0
-0.112713 0.005918 0
-0.113606 0.001184 0
0.000000 0.000000 0
-0.000778 0.006668 0
-0.002888 0.013094 0
-0.006127 0.019086 0
-0.010310 0.024511 0
-0.015276 0.029289 0
-0.020878 0.033377 0
-0.026987 0.036763 0
-0.033485 0.039456 0
-0.040267 0.041477 0
-0.047238 0.042853 0
-0.054309 0.043616 0
-0.061398 0.043792 0
-0.068427 0.043409 0
-0.075323 0.042486 0
-0.082013 0.041042 0
-0.088428 0.039092 0
-0.094500 0.036648 0
-0.100163 0.033724 0
-0.105352 0.030335 0
-0.110003 0.026500 0
-0.114056 0.022245 0
-0.117453 0.017599 0
-0.120140 0.012604 0
-0.122067 0.007308 0
-0.123189 0.001769 0
0.000000 0.000000 0
-0.000849 0.008179 0
-0.003144 0.015887 0
-0.006656 0.022956 0
-0.011181 0.029275 0
-0.016536 0.034783 0
-0.022561 0.039456 0
-0.029114 0.043299 0
-0.036069 0.046333 0
-0.043315 0.048592 0
-0.050750 0.050112 0
-0.058283 0.050931 0
-0.065830 0.051084 0
-0.073312 0.050600 0
-0.080653 0.049503 0
-0.087781 0.047814 0
-0.094626 0.045549 0
-0.101120 0.042723 0
-0.107195 0.039351 0
-0.112784 0.035449 0
-0.117824 0.031038 0
-0.122250 0.026145 0
-0.126003 0.020805 0
-0.129023 0.015061 0
-0.131258 0.008968 0
-0.132659 0.002588 0
0.000000 0.000000 0
-0.000914 0.009812 0
-0.003380 0.018902 0
-0.007145 0.027123 0
-0.011986 0.034391 0
-0.017703 0.040669 0
-0.024121 0.045955 0
-0.031088 0.050271 0
-0.038471 0.053656 0
-0.046150 0.056157 0
-0.054022 0.057822 0
-0.061991 0.058696 0
-0.069973 0.058821 0
-0.077886 0.058231 0
-0.085656 0.056955 0
-0.093209 0.055016 0
-0.100477 0.052431 0
-0.107389 0.049216 0
-0.113878 0.045388 0
-0.119878 0.040964 0
-0.125322 0.035966 0
-0.130144 0.030424 0
-0.134282 0.024373 0
-0.137673 0.017860 0
-0.140259 0.010943 0
-0.141987 0.003692 0
0.000000 0.000000 0
-0.000974 0.011559 0
-0.003595 0.022119 0
-0.007591 0.031562 0
-0.012720 0.039832 0
-0.018768 0.046918 0
-0.025547 0.052842 0
-0.032895 0.057648 0
-0.040672 0.061395 0
-0.048753 0.064143 0
-0.057030 0.065953 0
-0.065407 0.066883 0
-0.073797 0.066979 0
-0.082119 0.066283 0
-0.090297 0.064826 0
-0.098261 0.062635 0
-0.105940 0.059729 0
-0.113265 0.056125 0
-0.120170 0.051840 0
-0.126587 0.046892 0
-0.132448 0.041304 0
-0.137688 0.035105 0
-0.142238 0.028334 0
-0.146036 0.021039 0
-0.149016 0.013281 0
-0.151119 0.005134 0
0.000000 0.000000 0
-0.001027 0.013407 0
-0.003787 0.025519 0
-0.007990 0.036248 0
-0.013378 0.045568 0
-0.019723 0.053496 0
-0.026828 0.060083 0
-0.034522 0.065396 0
-0.042656 0.069514 0
-0.051103 0.072516 0
-0.059752 0.074476 0
-0.068505 0.075463 0
-0.077273 0.075532 0
-0.085976 0.074732 0
-0.094540 0.073097 0
-0.102894 0.070658 0
-0.110970 0.067435 0
-0.118699 0.063447 0
-0.126015 0.058710 0
-0.132852 0.053242 0
-0.139140 0.047067 0
-0.144813 0.040214 0
-0.149801 0.032721 0
-0.154036 0.024637 0
-0.157449 0.016026 0
-0.159975 0.006964 0
0.000000 0.000000 0
-0.001073 0.015345 0
-0.003955 0.029082 0
-0.008339 0.041153 0
-0.013955 0.051565 0
-0.020562 0.060368 0
-0.027955 0.067640 0
-0.035954 0.073476 0
-0.044407 0.077976 0
-0.053181 0.081239 0
-0.062164 0.083355 0
-0.071255 0.084403 0
-0.080367 0.084450 0
-0.089420 0.083550 0
-0.098341 0.081745 0
-0.107060 0.079065 0
-0.115512 0.075534 0
-0.123629 0.071171 0
-0.131347 0.065993 0
-0.138600 0.060017 0
-0.145318 0.053265 0
-0.151435 0.045766 0
-0.156878 0.037557 0
-0.161576 0.028688 0
-0.165458 0.019220 0
-0.168448 0.009233 0
0.000000 0.000000 0
-0.001112 0.017362 0
-0.004097 0.032785 0
-0.008635 0.046248 0
-0.014445 0.057791 0
-0.021277 0.067496 0
-0.028917 0.075475 0
-0.037180 0.081848 0
-0.045908 0.086741 0
-0.054967 0.090272 0
-0.064240 0.092550 0
-0.073629 0.093666 0
-0.083045 0.093697 0
-0.092411 0.092706 0
-0.101654 0.090738 0
-0.110708 0.087829 0
-0.119507 0.084004 0
-0.127990 0.079282 0
-0.136091 0.073680 0
-0.143746 0.067213 0
-0.150889 0.059902 0
-0.157451 0.051773 0
-0.163359 0.042862 0
-0.168539 0.033217 0
-0.172915 0.022898 0
-0.176407 0.011984 0
0.000000 0.000000 0
-0.001144 0.019442 0
-0.004212 0.036605 0
-0.008876 0.051501 0
-0.014844 0.064207 0
-0.021861 0.074840 0
-0.029705 0.083543 0
-0.038186 0.090467 0
-0.047144 0.095763 0
-0.056440 0.099571 0
-0.065958 0.102017 0
-0.075598 0.103208 0
-0.085274 0.103232 0
-0.094908 0.102159 0
-0.104431 0.100041 0
-0.113780 0.096918 0
-0.122891 0.092816 0
-0.131706 0.087755 0
-0.140163 0.081750 0
-0.148199 0.074816 0
-0.155750 0.066970 0
-0.162747 0.058236 0
-0.169118 0.048645 0
-0.174787 0.038243 0
-0.179674 0.027088 0
-0.183695 0.015256 0
0.000000 0.000000 0
-0.001167 0.021573 0
-0.004298 0.040517 0
-0.009058 0.056880 0
-0.015149 0.070776 0
-0.022309 0.082357 0
-0.030312 0.091800 0
-0.038964 0.099287 0
-0.048102 0.104995 0
-0.057585 0.109087 0
-0.067296 0.111708 0
-0.077136 0.112981 0
-0.087019 0.113007 0
-0.096871 0.111863 0
-0.106625 0.109610 0
-0.116220 0.106289 0
-0.125598 0.101931 0
-0.134702 0.096554 0
-0.143474 0.090173 0
-0.151857 0.082800 0
-0.159787 0.074450 0
-0.167197 0.065141 0
-0.174017 0.054902 0
-0.180169 0.043773 0
-0.185570 0.031806 0
-0.190134 0.019074 0
0.000000 0.000000 0
-0.001182 0.023741 0
-0.004356 0.044496 0
-0.009181 0.062352 0
-0.015357 0.077457 0
-0.022617 0.090003 0
-0.030732 0.100198 0
-0.039506 0.108257 0
-0.048771 0.114384 0
-0.058386 0.118766 0
-0.068235 0.121568 0
-0.078218 0.122931 0
-0.088251 0.122967 0
-0.098262 0.121764 0
-0.108189 0.119390 0
-0.117972 0.115891 0
-0.127560 0.111298 0
-0.136899 0.105632 0
-0.145936 0.098905 0
-0.154617 0.091128 0
-0.162882 0.082310 0
-0.170669 0.072465 0
-0.177908 0.061617 0
-0.184522 0.049797 0
-0.190428 0.037054 0
-0.195536 0.023454 0
0.000000 0.000000 0
-0.001189 0.025929 0
-0.004384 0.048516 0
-0.009245 0.067882 0
-0.015468 0.084212 0
-0.022785 0.097733 0
-0.030965 0.108689 0
-0.039807 0.117325 0
-0.049145 0.123875 0
-0.058836 0.128551 0
-0.068762 0.131540 0
-0.078825 0.132997 0
-0.088944 0.133051 0
-0.099048 0.131800 0
-0.109080 0.129320 0
-0.118985 0.125660 0
-0.128714 0.120857 0
-0.138221 0.114930 0
-0.147458 0.107891 0
-0.156375 0.099747 0
-0.164919 0.090502 0
-0.173029 0.080167 0
-0.180640 0.068755 0
-0.187678 0.056293 0
-0.194062 0.042820 0
-0.199699 0.028396 0
0.000000 0.000000 0
-0.001188 0.028125 0
-0.004384 0.052552 0
-0.009250 0.073435 0
-0.015483 0.090997 0
-0.022814 0.105500 0
-0.031010 0.117221 0
-0.039870 0.126437 0
-0.049223 0.133412 0
-0.058928 0.138383 0
-0.068867 0.141558 0
-0.078943 0.143113 0
-0.089077 0.143190 0
-0.099202 0.141901 0
-0.109262 0.139326 0
-0.119211 0.135525 0
-0.129004 0.130535 0
-0.138600 0.124376 0
-0.147958 0.117059 0
-0.157034 0.108588 0
-0.165780 0.098963 0
-0.174144 0.088187 0
-0.182064 0.076266 0
-0.189471 0.063219 0
-0.196285 0.049074 0
-0.202416 0.033882 0
0.000000 0.000000 0
-0.001180 0.030314 0
-0.004358 0.056578 0
-0.009201 0.078980 0
-0.015408 0.097776 0
-0.022711 0.113260 0
-0.030876 0.125744 0
-0.039699 0.135538 0
-0.049010 0.142934 0
-0.058667 0.148195 0
-0.068551 0.151555 0
-0.078567 0.153207 0
-0.088639 0.153309 0
-0.098703 0.151986 0
-0.108709 0.149329 0
-0.118614 0.145402 0
-0.128380 0.140246 0
-0.137973 0.133884 0
-0.147360 0.126325 0
-0.156503 0.117569 0
-0.165363 0.107613 0
-0.173893 0.096450 0
-0.182039 0.084082 0
-0.189739 0.070513 0
-0.196917 0.055766 0
-0.203488 0.039875 0
0.000000 0.000000 0
-0.001164 0.032482 0
-0.004307 0.060573 0
-0.009101 0.084486 0
-0.015250 0.104508 0
-0.022486 0.120967 0
-0.030574 0.134208 0
-0.039309 0.144572 0
-0.048519 0.152379 0
-0.058062 0.157923 0
-0.067821 0.161458 0
-0.077701 0.163201 0
-0.087629 0.163326 0
-0.097545 0.161971 0
-0.107403 0.159237 0
-0.117167 0.155196 0
-0.126806 0.149894 0
-0.136294 0.143356 0
-0.145603 0.135589 0
-0.154707 0.126591 0
-0.163573 0.116353 0
-0.172166 0.104864 0
-0.180438 0.092112 0
-0.188335 0.078096 0
-0.195791 0.062823 0
-0.202724 0.046316 0
0.000000 0.000000 0
-0.001143 0.034620 0
-0.004236 0.064515 0
-0.008960 0.089924 0
-0.015022 0.111161 0
-0.022155 0.128583 0
-0.030123 0.142566 0
-0.038719 0.153484 0
-0.047772 0.161687 0
-0.057136 0.167497 0
-0.066697 0.171194 0
-0.076360 0.173014 0
-0.086056 0.173152 0
-0.095730 0.171760 0
-0.105341 0.168951 0
-0.114859 0.164805 0
-0.124261 0.159373 0
-0.133528 0.152681 0
-0.142643 0.144738 0
-0.151587 0.135540 0
-0.160340 0.125071 0
-0.168873 0.113315 0
-0.177153 0.100251 0
-0.185134 0.085866 0
-0.192759 0.070155 0
-0.199957 0.053125 0

CELL_DATA 625 
SCALARS pressure float 1 
LOOKUP_TABLE default 
0.008104
0.008036
0.007842
0.007563
0.007242
0.006912
0.006600
0.006321
0.006087
0.005904
0.005779
0.005714
0.005713
0.005775
0.005903
0.006096
0.006354
0.006676
0.007061
0.007507
0.008011
0.008568
0.009173
0.009819
0.010498
0.008169
0.008099
0.007934
0.007705
0.007442
0.007169
0.006906
0.006669
0.006467
0.006310
0.006202
0.006149
0.006152
0.006213
0.006333
0.006511
0.006749
0.007044
0.007397
0.007805
0.008266
0.008775
0.009327
0.009917
0.010536
0.008359
0.008261
0.008096
0.007886
0.007652
0.007412
0.007181
0.006973
0.006797
0.006661
0.006569
0.006526
0.006532
0.006590
0.006701
0.006865
0.007081
0.007351
0.007674
0.008047
0.008468
0.008934
0.009441
0.009982
0.010550
0.008643
0.008492
0.008303
0.008088
0.007862
0.007638
0.007427
0.007240
0.007083
0.006963
0.006884
0.006846
0.006853
0.006906
0.007006
0.007154
0.007351
0.007596
0.007890
0.008230
0.008616
0.009044
0.009511
0.010010
0.010536
0.008979
0.008762
0.008532
0.008296
0.008064
0.007844
0.007644
0.007470
0.007326
0.007217
0.007143
0.007107
0.007111
0.007157
0.007245
0.007377
0.007553
0.007775
0.008041
0.008352
0.008706
0.009100
0.009531
0.009995
0.010486
0.009331
0.009041
0.008762
0.008497
0.008251
0.008027
0.007829
0.007659
0.007521
0.007414
0.007342
0.007304
0.007302
0.007339
0.007414
0.007529
0.007685
0.007883
0.008123
0.008406
0.008730
0.009094
0.009495
0.009929
0.010390
0.009671
0.009306
0.008975
0.008676
0.008409
0.008174
0.007970
0.007798
0.007658
0.007550
0.007474
0.007431
0.007421
0.007446
0.007506
0.007603
0.007738
0.007912
0.008127
0.008383
0.008680
0.009016
0.009391
0.009800
0.010238
0.009974
0.009538
0.009154
0.008817
0.008524
0.008271
0.008056
0.007877
0.007731
0.007617
0.007535
0.007483
0.007462
0.007472
0.007515
0.007592
0.007704
0.007855
0.008044
0.008274
0.008545
0.008856
0.009208
0.009596
0.010016
0.010221
0.009716
0.009278
0.008902
0.008580
0.008307
0.008077
0.007887
0.007731
0.007608
0.007515
0.007451
0.007415
0.007408
0.007431
0.007485
0.007574
0.007699
0.007863
0.008067
0.008313
0.008602
0.008932
0.009302
0.009710
0.010394
0.009821
0.009332
0.008915
0.008564