# vtk DataFile Version 2.0
generated by CFD-lab course output (written by Tobias Neckel) 
ASCII

DATASET STRUCTURED_GRID
DIMENSIONS  26 26 1 
POINTS 676 float

0.500000 0.500000 0
0.520000 0.500000 0
0.540000 0.500000 0
0.560000 0.500000 0
0.580000 0.500000 0
0.600000 0.500000 0
0.620000 0.500000 0
0.640000 0.500000 0
0.660000 0.500000 0
0.680000 0.500000 0
0.700000 0.500000 0
0.720000 0.500000 0
0.740000 0.500000 0
0.760000 0.500000 0
0.780000 0.500000 0
0.800000 0.500000 0
0.820000 0.500000 0
0.840000 0.500000 0
0.860000 0.500000 0
0.880000 0.500000 0
0.900000 0.500000 0
0.920000 0.500000 0
0.940000 0.500000 0
0.960000 0.500000 0
0.980000 0.500000 0
1.000000 0.500000 0
0.500000 0.520000 0
0.520000 0.520000 0
0.540000 0.520000 0
0.560000 0.520000 0
0.580000 0.520000 0
0.600000 0.520000 0
0.620000 0.520000 0
0.640000 0.520000 0
0.660000 0.520000 0
0.680000 0.520000 0
0.700000 0.520000 0
0.720000 0.520000 0
0.740000 0.520000 0
0.760000 0.520000 0
0.780000 0.520000 0
0.800000 0.520000 0
0.820000 0.520000 0
0.840000 0.520000 0
0.860000 0.520000 0
0.880000 0.520000 0
0.900000 0.520000 0
0.920000 0.520000 0
0.940000 0.520000 0
0.960000 0.520000 0
0.980000 0.520000 0
1.000000 0.520000 0
0.500000 0.540000 0
0.520000 0.540000 0
0.540000 0.540000 0
0.560000 0.540000 0
0.580000 0.540000 0
0.600000 0.540000 0
0.620000 0.540000 0
0.640000 0.540000 0
0.660000 0.540000 0
0.680000 0.540000 0
0.700000 0.540000 0
0.720000 0.540000 0
0.740000 0.540000 0
0.760000 0.540000 0
0.780000 0.540000 0
0.800000 0.540000 0
0.820000 0.540000 0
0.840000 0.540000 0
0.860000 0.540000 0
0.880000 0.540000 0
0.900000 0.540000 0
0.920000 0.540000 0
0.940000 0.540000 0
0.960000 0.540000 0
0.980000 0.540000 0
1.000000 0.540000 0
0.500000 0.560000 0
0.520000 0.560000 0
0.540000 0.560000 0
0.560000 0.560000 0
0.580000 0.560000 0
0.600000 0.560000 0
0.620000 0.560000 0
0.640000 0.560000 0
0.660000 0.560000 0
0.680000 0.560000 0
0.700000 0.560000 0
0.720000 0.560000 0
0.740000 0.560000 0
0.760000 0.560000 0
0.780000 0.560000 0
0.800000 0.560000 0
0.820000 0.560000 0
0.840000 0.560000 0
0.860000 0.560000 0
0.880000 0.560000 0
0.900000 0.560000 0
0.920000 0.560000 0
0.940000 0.560000 0
0.960000 0.560000 0
0.980000 0.560000 0
1.000000 0.560000 0
0.500000 0.580000 0
0.520000 0.580000 0
0.540000 0.580000 0
0.560000 0.580000 0
0.580000 0.580000 0
0.600000 0.580000 0
0.620000 0.580000 0
0.640000 0.580000 0
0.660000 0.580000 0
0.680000 0.580000 0
0.700000 0.580000 0
0.720000 0.580000 0
0.740000 0.580000 0
0.760000 0.580000 0
0.780000 0.580000 0
0.800000 0.580000 0
0.820000 0.580000 0
0.840000 0.580000 0
0.860000 0.580000 0
0.880000 0.580000 0
0.900000 0.580000 0
0.920000 0.580000 0
0.940000 0.580000 0
0.960000 0.580000 0
0.980000 0.580000 0
1.000000 0.580000 0
0.500000 0.600000 0
0.520000 0.600000 0
0.540000 0.600000 0
0.560000 0.600000 0
0.580000 0.600000 0
0.600000 0.600000 0
0.620000 0.600000 0
0.640000 0.600000 0
0.660000 0.600000 0
0.680000 0.600000 0
0.700000 0.600000 0
0.720000 0.600000 0
0.740000 0.600000 0
0.760000 0.600000 0
0.780000 0.600000 0
0.800000 0.600000 0
0.820000 0.600000 0
0.840000 0.600000 0
0.860000 0.600000 0
0.880000 0.600000 0
0.900000 0.600000 0
0.920000 0.600000 0
0.940000 0.600000 0
0.960000 0.600000 0
0.980000 0.600000 0
1.000000 0.600000 0
0.500000 0.620000 0
0.520000 0.620000 0
0.540000 0.620000 0
0.560000 0.620000 0
0.580000 0.620000 0
0.600000 0.620000 0
0.620000 0.620000 0
0.640000 0.620000 0
0.660000 0.620000 0
0.680000 0.620000 0
0.700000 0.620000 0
0.720000 0.620000 0
0.740000 0.620000 0
0.760000 0.620000 0
0.780000 0.620000 0
0.800000 0.620000 0
0.820000 0.620000 0
0.840000 0.620000 0
0.860000 0.620000 0
0.880000 0.620000 0
0.900000 0.620000 0
0.920000 0.620000 0
0.940000 0.620000 0
0.960000 0.620000 0
0.980000 0.620000 0
1.000000 0.620000 0
0.500000 0.640000 0
0.520000 0.640000 0
0.540000 0.640000 0
0.560000 0.640000 0
0.580000 0.640000 0
0.600000 0.640000 0
0.620000 0.640000 0
0.640000 0.640000 0
0.660000 0.640000 0
0.680000 0.640000 0
0.700000 0.640000 0
0.720000 0.640000 0
0.740000 0.640000 0
0.760000 0.640000 0
0.780000 0.640000 0
0.800000 0.640000 0
0.820000 0.640000 0
0.840000 0.640000 0
0.860000 0.640000 0
0.880000 0.640000 0
0.900000 0.640000 0
0.920000 0.640000 0
0.940000 0.640000 0
0.960000 0.640000 0
0.980000 0.640000 0
1.000000 0.640000 0
0.500000 0.660000 0
0.520000 0.660000 0
0.540000 0.660000 0
0.560000 0.660000 0
0.580000 0.660000 0
0.600000 0.660000 0
0.620000 0.660000 0
0.640000 0.660000 0
0.660000 0.660000 0
0.680000 0.660000 0
0.700000 0.660000 0
0.720000 0.660000 0
0.740000 0.660000 0
0.760000 0.660000 0
0.780000 0.660000 0
0.800000 0.660000 0
0.820000 0.660000 0
0.840000 0.660000 0
0.860000 0.660000 0
0.880000 0.660000 0
0.900000 0.660000 0
0.920000 0.660000 0
0.940000 0.660000 0
0.960000 0.660000 0
0.980000 0.660000 0
1.000000 0.660000 0
0.500000 0.680000 0
0.520000 0.680000 0
0.540000 0.680000 0
0.560000 0.680000 0
0.580000 0.680000 0
0.600000 0.680000 0
0.620000 0.680000 0
0.640000 0.680000 0
0.660000 0.680000 0
0.680000 0.680000 0
0.700000 0.680000 0
0.720000 0.680000 0
0.740000 0.680000 0
0.760000 0.680000 0
0.780000 0.680000 0
0.800000 0.680000 0
0.820000 0.680000 0
0.840000 0.680000 0
0.860000 0.680000 0
0.880000 0.680000 0
0.900000 0.680000 0
0.920000 0.680000 0
0.940000 0.680000 0
0.960000 0.680000 0
0.980000 0.680000 0
1.000000 0.680000 0
0.500000 0.700000 0
0.520000 0.700000 0
0.540000 0.700000 0
0.560000 0.700000 0
0.580000 0.700000 0
0.600000 0.700000 0
0.620000 0.700000 0
0.640000 0.700000 0
0.660000 0.700000 0
0.680000 0.700000 0
0.700000 0.700000 0
0.720000 0.700000 0
0.740000 0.700000 0
0.760000 0.700000 0
0.780000 0.700000 0
0.800000 0.700000 0
0.820000 0.700000 0
0.840000 0.700000 0
0.860000 0.700000 0
0.880000 0.700000 0
0.900000 0.700000 0
0.920000 0.700000 0
0.940000 0.700000 0
0.960000 0.700000 0
0.980000 0.700000 0
1.000000 0.700000 0
0.500000 0.720000 0
0.520000 0.720000 0
0.540000 0.720000 0
0.560000 0.720000 0
0.580000 0.720000 0
0.600000 0.720000 0
0.620000 0.720000 0
0.640000 0.720000 0
0.660000 0.720000 0
0.680000 0.720000 0
0.700000 0.720000 0
0.720000 0.720000 0
0.740000 0.720000 0
0.760000 0.720000 0
0.780000 0.720000 0
0.800000 0.720000 0
0.820000 0.720000 0
0.840000 0.720000 0
0.860000 0.720000 0
0.880000 0.720000 0
0.900000 0.720000 0
0.920000 0.720000 0
0.940000 0.720000 0
0.960000 0.720000 0
0.980000 0.720000 0
1.000000 0.720000 0
0.500000 0.740000 0
0.520000 0.740000 0
0.540000 0.740000 0
0.560000 0.740000 0
0.580000 0.740000 0
0.600000 0.740000 0
0.620000 0.740000 0
0.640000 0.740000 0
0.660000 0.740000 0
0.680000 0.740000 0
0.700000 0.740000 0
0.720000 0.740000 0
0.740000 0.740000 0
0.760000 0.740000 0
0.780000 0.740000 0
0.800000 0.740000 0
0.820000 0.740000 0
0.840000 0.740000 0
0.860000 0.740000 0
0.880000 0.740000 0
0.900000 0.740000 0
0.920000 0.740000 0
0.940000 0.740000 0
0.960000 0.740000 0
0.980000 0.740000 0
1.000000 0.740000 0
0.500000 0.760000 0
0.520000 0.760000 0
0.540000 0.760000 0
0.560000 0.760000 0
0.580000 0.760000 0
0.600000 0.760000 0
0.620000 0.760000 0
0.640000 0.760000 0
0.660000 0.760000 0
0.680000 0.760000 0
0.700000 0.760000 0
0.720000 0.760000 0
0.740000 0.760000 0
0.760000 0.760000 0
0.780000 0.760000 0
0.800000 0.760000 0
0.820000 0.760000 0
0.840000 0.760000 0
0.860000 0.760000 0
0.880000 0.760000 0
0.900000 0.760000 0
0.920000 0.760000 0
0.940000 0.760000 0
0.960000 0.760000 0
0.980000 0.760000 0
1.000000 0.760000 0
0.500000 0.780000 0
0.520000 0.780000 0
0.540000 0.780000 0
0.560000 0.780000 0
0.580000 0.780000 0
0.600000 0.780000 0
0.620000 0.780000 0
0.640000 0.780000 0
0.660000 0.780000 0
0.680000 0.780000 0
0.700000 0.780000 0
0.720000 0.780000 0
0.740000 0.780000 0
0.760000 0.780000 0
0.780000 0.780000 0
0.800000 0.780000 0
0.820000 0.780000 0
0.840000 0.780000 0
0.860000 0.780000 0
0.880000 0.780000 0
0.900000 0.780000 0
0.920000 0.780000 0
0.940000 0.780000 0
0.960000 0.780000 0
0.980000 0.780000 0
1.000000 0.780000 0
0.500000 0.800000 0
0.520000 0.800000 0
0.540000 0.800000 0
0.560000 0.800000 0
0.580000 0.800000 0
0.600000 0.800000 0
0.620000 0.800000 0
0.640000 0.800000 0
0.660000 0.800000 0
0.680000 0.800000 0
0.700000 0.800000 0
0.720000 0.800000 0
0.740000 0.800000 0
0.760000 0.800000 0
0.780000 0.800000 0
0.800000 0.800000 0
0.820000 0.800000 0
0.840000 0.800000 0
0.860000 0.800000 0
0.880000 0.800000 0
0.900000 0.800000 0
0.920000 0.800000 0
0.940000 0.800000 0
0.960000 0.800000 0
0.980000 0.800000 0
1.000000 0.800000 0
0.500000 0.820000 0
0.520000 0.820000 0
0.540000 0.820000 0
0.560000 0.820000 0
0.580000 0.820000 0
0.600000 0.820000 0
0.620000 0.820000 0
0.640000 0.820000 0
0.660000 0.820000 0
0.680000 0.820000 0
0.700000 0.820000 0
0.720000 0.820000 0
0.740000 0.820000 0
0.760000 0.820000 0
0.780000 0.820000 0
0.800000 0.820000 0
0.820000 0.820000 0
0.840000 0.820000 0
0.860000 0.820000 0
0.880000 0.820000 0
0.900000 0.820000 0
0.920000 0.820000 0
0.940000 0.820000 0
0.960000 0.820000 0
0.980000 0.820000 0
1.000000 0.820000 0
0.500000 0.840000 0
0.520000 0.840000 0
0.540000 0.840000 0
0.560000 0.840000 0
0.580000 0.840000 0
0.600000 0.840000 0
0.620000 0.840000 0
0.640000 0.840000 0
0.660000 0.840000 0
0.680000 0.840000 0
0.700000 0.840000 0
0.720000 0.840000 0
0.740000 0.840000 0
0.760000 0.840000 0
0.780000 0.840000 0
0.800000 0.840000 0
0.820000 0.840000 0
0.840000 0.840000 0
0.860000 0.840000 0
0.880000 0.840000 0
0.900000 0.840000 0
0.920000 0.840000 0
0.940000 0.840000 0
0.960000 0.840000 0
0.980000 0.840000 0
1.000000 0.840000 0
0.500000 0.860000 0
0.520000 0.860000 0
0.540000 0.860000 0
0.560000 0.860000 0
0.580000 0.860000 0
0.600000 0.860000 0
0.620000 0.860000 0
0.640000 0.860000 0
0.660000 0.860000 0
0.680000 0.860000 0
0.700000 0.860000 0
0.720000 0.860000 0
0.740000 0.860000 0
0.760000 0.860000 0
0.780000 0.860000 0
0.800000 0.860000 0
0.820000 0.860000 0
0.840000 0.860000 0
0.860000 0.860000 0
0.880000 0.860000 0
0.900000 0.860000 0
0.920000 0.860000 0
0.940000 0.860000 0
0.960000 0.860000 0
0.980000 0.860000 0
1.000000 0.860000 0
0.500000 0.880000 0
0.520000 0.880000 0
0.540000 0.880000 0
0.560000 0.880000 0
0.580000 0.880000 0
0.600000 0.880000 0
0.620000 0.880000 0
0.640000 0.880000 0
0.660000 0.880000 0
0.680000 0.880000 0
0.700000 0.880000 0
0.720000 0.880000 0
0.740000 0.880000 0
0.760000 0.880000 0
0.780000 0.880000 0
0.800000 0.880000 0
0.820000 0.880000 0
0.840000 0.880000 0
0.860000 0.880000 0
0.880000 0.880000 0
0.900000 0.880000 0
0.920000 0.880000 0
0.940000 0.880000 0
0.960000 0.880000 0
0.980000 0.880000 0
1.000000 0.880000 0
0.500000 0.900000 0
0.520000 0.900000 0
0.540000 0.900000 0
0.560000 0.900000 0
0.580000 0.900000 0
0.600000 0.900000 0
0.620000 0.900000 0
0.640000 0.900000 0
0.660000 0.900000 0
0.680000 0.900000 0
0.700000 0.900000 0
0.720000 0.900000 0
0.740000 0.900000 0
0.760000 0.900000 0
0.780000 0.900000 0
0.800000 0.900000 0
0.820000 0.900000 0
0.840000 0.900000 0
0.860000 0.900000 0
0.880000 0.900000 0
0.900000 0.900000 0
0.920000 0.900000 0
0.940000 0.900000 0
0.960000 0.900000 0
0.980000 0.900000 0
1.000000 0.900000 0
0.500000 0.920000 0
0.520000 0.920000 0
0.540000 0.920000 0
0.560000 0.920000 0
0.580000 0.920000 0
0.600000 0.920000 0
0.620000 0.920000 0
0.640000 0.920000 0
0.660000 0.920000 0
0.680000 0.920000 0
0.700000 0.920000 0
0.720000 0.920000 0
0.740000 0.920000 0
0.760000 0.920000 0
0.780000 0.920000 0
0.800000 0.920000 0
0.820000 0.920000 0
0.840000 0.920000 0
0.860000 0.920000 0
0.880000 0.920000 0
0.900000 0.920000 0
0.920000 0.920000 0
0.940000 0.920000 0
0.960000 0.920000 0
0.980000 0.920000 0
1.000000 0.920000 0
0.500000 0.940000 0
0.520000 0.940000 0
0.540000 0.940000 0
0.560000 0.940000 0
0.580000 0.940000 0
0.600000 0.940000 0
0.620000 0.940000 0
0.640000 0.940000 0
0.660000 0.940000 0
0.680000 0.940000 0
0.700000 0.940000 0
0.720000 0.940000 0
0.740000 0.940000 0
0.760000 0.940000 0
0.780000 0.940000 0
0.800000 0.940000 0
0.820000 0.940000 0
0.840000 0.940000 0
0.860000 0.940000 0
0.880000 0.940000 0
0.900000 0.940000 0
0.920000 0.940000 0
0.940000 0.940000 0
0.960000 0.940000 0
0.980000 0.940000 0
1.000000 0.940000 0
0.500000 0.960000 0
0.520000 0.960000 0
0.540000 0.960000 0
0.560000 0.960000 0
0.580000 0.960000 0
0.600000 0.960000 0
0.620000 0.960000 0
0.640000 0.960000 0
0.660000 0.960000 0
0.680000 0.960000 0
0.700000 0.960000 0
0.720000 0.960000 0
0.740000 0.960000 0
0.760000 0.960000 0
0.780000 0.960000 0
0.800000 0.960000 0
0.820000 0.960000 0
0.840000 0.960000 0
0.860000 0.960000 0
0.880000 0.960000 0
0.900000 0.960000 0
0.920000 0.960000 0
0.940000 0.960000 0
0.960000 0.960000 0
0.980000 0.960000 0
1.000000 0.960000 0
0.500000 0.980000 0
0.520000 0.980000 0
0.540000 0.980000 0
0.560000 0.980000 0
0.580000 0.980000 0
0.600000 0.980000 0
0.620000 0.980000 0
0.640000 0.980000 0
0.660000 0.980000 0
0.680000 0.980000 0
0.700000 0.980000 0
0.720000 0.980000 0
0.740000 0.980000 0
0.760000 0.980000 0
0.780000 0.980000 0
0.800000 0.980000 0
0.820000 0.980000 0
0.840000 0.980000 0
0.860000 0.980000 0
0.880000 0.980000 0
0.900000 0.980000 0
0.920000 0.980000 0
0.940000 0.980000 0
0.960000 0.980000 0
0.980000 0.980000 0
1.000000 0.980000 0
0.500000 1.000000 0
0.520000 1.000000 0
0.540000 1.000000 0
0.560000 1.000000 0
0.580000 1.000000 0
0.600000 1.000000 0
0.620000 1.000000 0
0.640000 1.000000 0
0.660000 1.000000 0
0.680000 1.000000 0
0.700000 1.000000 0
0.720000 1.000000 0
0.740000 1.000000 0
0.760000 1.000000 0
0.780000 1.000000 0
0.800000 1.000000 0
0.820000 1.000000 0
0.840000 1.000000 0
0.860000 1.000000 0
0.880000 1.000000 0
0.900000 1.000000 0
0.920000 1.000000 0
0.940000 1.000000 0
0.960000 1.000000 0
0.980000 1.000000 0
1.000000 1.000000 0
POINT_DATA 676 

VECTORS velocity float
-0.199957 0.053125 0
-0.206642 0.034807 0
-0.212709 0.015253 0
-0.218036 -0.005448 0
-0.222478 -0.027172 0
-0.225890 -0.049764 0
-0.228098 -0.073026 0
-0.228914 -0.096687 0
-0.228132 -0.120403 0
-0.225539 -0.143743 0
-0.220925 -0.166187 0
-0.214097 -0.187122 0
-0.204894 -0.205845 0
-0.193216 -0.221575 0
-0.179052 -0.233477 0
-0.162506 -0.240701 0
-0.143832 -0.242442 0
-0.123461 -0.238013 0
-0.102013 -0.226942 0
-0.080295 -0.209066 0
-0.059268 -0.184612 0
-0.039989 -0.154249 0
-0.023525 -0.119075 0
-0.010861 -0.080537 0
-0.002816 -0.040287 0
0.000000 0.000000 0
-0.195048 0.060199 0
-0.201991 0.041371 0
-0.208439 0.021198 0
-0.214276 -0.000256 0
-0.219363 -0.022877 0
-0.223548 -0.046528 0
-0.226660 -0.071033 0
-0.228498 -0.096143 0
-0.228843 -0.121528 0
-0.227456 -0.146764 0
-0.224091 -0.171328 0
-0.218507 -0.194585 0
-0.210487 -0.215790 0
-0.199864 -0.234093 0
-0.186551 -0.248555 0
-0.170578 -0.258191 0
-0.152133 -0.262023 0
-0.131600 -0.259172 0
-0.109581 -0.248959 0
-0.086909 -0.231026 0
-0.064625 -0.205454 0
-0.043912 -0.172839 0
-0.026007 -0.134302 0
-0.012086 -0.091411 0
-0.003158 -0.046012 0
0.000000 0.000000 0
-0.187892 0.067412 0
-0.194964 0.048198 0
-0.201674 0.027538 0
-0.207919 0.005475 0
-0.213570 -0.017900 0
-0.218473 -0.042467 0
-0.222459 -0.068076 0
-0.225327 -0.094504 0
-0.226844 -0.121445 0
-0.226753 -0.148495 0
-0.224775 -0.175135 0
-0.220623 -0.200725 0
-0.214024 -0.224488 0
-0.204735 -0.245512 0
-0.192588 -0.262764 0
-0.177524 -0.275119 0
-0.159646 -0.281420 0
-0.139265 -0.280566 0
-0.116945 -0.271632 0
-0.093525 -0.254022 0
-0.070108 -0.227610 0
-0.048007 -0.192867 0
-0.028642 -0.150901 0
-0.013406 -0.103386 0
-0.003532 -0.052373 0
0.000000 0.000000 0
-0.178429 0.074620 0
-0.185478 0.055153 0
-0.192310 0.034153 0
-0.198837 0.011640 0
-0.204943 -0.012323 0
-0.210476 -0.037639 0
-0.215277 -0.064180 0
-0.219147 -0.091758 0
-0.221850 -0.120102 0
-0.223114 -0.148834 0
-0.222633 -0.177457 0
-0.220082 -0.205336 0
-0.215126 -0.231679 0
-0.207451 -0.255529 0
-0.196797 -0.275766 0
-0.183003 -0.291133 0
-0.166067 -0.300283 0
-0.146205 -0.301873 0
-0.123912 -0.294698 0
-0.100006 -0.277863 0
-0.075635 -0.250972 0
-0.052234 -0.214305 0
-0.031415 -0.168902 0
-0.014819 -0.116521 0
-0.003939 -0.059418 0
0.000000 0.000000 0
-0.166637 0.081661 0
-0.173497 0.062080 0
-0.180291 0.040897 0
-0.186948 0.018108 0
-0.193371 -0.006261 0
-0.199416 -0.032133 0
-0.204940 -0.059404 0
-0.209752 -0.087930 0
-0.213618 -0.117478 0
-0.216259 -0.147712 0
-0.217352 -0.178168 0
-0.216535 -0.208233 0
-0.213424 -0.237118 0
-0.207630 -0.263841 0
-0.198797 -0.287211 0
-0.186653 -0.305849 0
-0.171069 -0.318218 0
-0.152140 -0.322720 0
-0.130261 -0.317831 0
-0.106195 -0.302299 0
-0.081108 -0.275383 0
-0.056541 -0.237087 0
-0.034308 -0.188315 0
-0.016322 -0.130863 0
-0.004379 -0.067193 0
0.000000 0.000000 0
-0.152542 0.088360 0
-0.159033 0.068806 0
-0.165608 0.047604 0
-0.172221 0.024720 0
-0.178794 0.000145 0
-0.185211 -0.026069 0
-0.191335 -0.053844 0
-0.196990 -0.083081 0
-0.201955 -0.113595 0
-0.205952 -0.145100 0
-0.208652 -0.177180 0
-0.209667 -0.209263 0
-0.208568 -0.240584 0
-0.204898 -0.270155 0
-0.198205 -0.296743 0
-0.188095 -0.318861 0
-0.174299 -0.334795 0
-0.156762 -0.342681 0
-0.135742 -0.340643 0
-0.111909 -0.327016 0
-0.086408 -0.300627 0
-0.060866 -0.261104 0
-0.037296 -0.209121 0
-0.017909 -0.146450 0
-0.004854 -0.075740 0
0.000000 0.000000 0
-0.136205 0.094532 0
-0.142138 0.075146 0
-0.148306 0.054086 0
-0.154685 0.031293 0
-0.161224 0.006729 0
-0.167842 -0.019592 0
-0.174408 -0.047625 0
-0.180769 -0.077311 0
-0.186725 -0.108516 0
-0.192013 -0.141015 0
-0.196303 -0.174453 0
-0.199199 -0.208316 0
-0.200235 -0.241888 0
-0.198896 -0.274204 0
-0.194638 -0.304014 0
-0.186943 -0.329755 0
-0.175385 -0.349552 0
-0.159735 -0.361277 0
-0.140077 -0.362684 0
-0.116938 -0.351632 0
-0.091399 -0.326426 0
-0.065135 -0.286199 0
-0.040350 -0.231272 0
-0.019575 -0.163306 0
-0.005364 -0.085101 0
0.000000 0.000000 0
-0.117717 0.099990 0
-0.122903 0.080908 0
-0.128468 0.060151 0
-0.134417 0.037637 0
-0.140726 0.013302 0
-0.147344 -0.012886 0
-0.154160 -0.040916 0
-0.161055 -0.070763 0
-0.167854 -0.102352 0
-0.174316 -0.135522 0
-0.180129 -0.169995 0
-0.184897 -0.205331 0
-0.188138 -0.240887 0
-0.189289 -0.275752 0
-0.187726 -0.308696 0
-0.182807 -0.338114 0
-0.173942 -0.362003 0
-0.160703 -0.377990 0
-0.142959 -0.383440 0
-0.121047 -0.375694 0
-0.095923 -0.352430 0
-0.069261 -0.312154 0
-0.043434 -0.254681 0
-0.021313 -0.181436 0
-0.005911 -0.095315 0
0.000000 0.000000 0
-0.097180 0.104547 0
-0.101431 0.085898 0
-0.106199 0.065600 0
-0.111513 0.043550 0
-0.117382 0.019656 0
-0.123784 -0.006157 0
-0.130640 -0.033914 0
-0.137865 -0.063617 0
-0.145319 -0.095255 0
-0.152794 -0.128739 0
-0.160007 -0.163872 0
-0.166579 -0.200307 0
-0.172031 -0.237496 0
-0.175771 -0.274616 0
-0.177112 -0.310497 0
-0.175296 -0.343539 0
-0.169569 -0.371656 0
-0.159283 -0.392260 0
-0.144056 -0.402339 0
-0.123974 -0.398669 0
-0.099799 -0.378213 0
-0.073144 -0.338687 0
-0.046510 -0.279219 0
-0.023117 -0.200829 0
-0.006496 -0.106414 0
0.000000 0.000000 0
-0.074691 0.108021 0
-0.077826 0.089926 0
-0.081605 0.070233 0
-0.086081 0.048821 0
-0.091292 0.025573 0
-0.097249 0.000372 0
-0.103924 -0.026835 0
-0.111256 -0.056084 0
-0.119144 -0.087423 0
-0.127426 -0.120834 0
-0.135862 -0.156209 0
-0.144109 -0.193307 0
-0.151709 -0.231695 0
-0.158069 -0.270671 0
-0.162459 -0.309171 0
-0.164027 -0.345657 0
-0.161856 -0.378017 0
-0.155070 -0.403503 0
-0.143001 -0.418749 0
-0.125422 -0.419950 0
-0.102824 -0.403260 0
-0.076670 -0.365443 0
-0.049535 -0.304708 0
-0.024981 -0.221450 0
-0.007123 -0.118432 0
0.000000 0.000000 0
-0.050308 0.110243 0
-0.052161 0.092812 0
-0.054772 0.073855 0
-0.058218 0.053238 0
-0.062563 0.030823 0
-0.067854 0.006474 0
-0.074114 -0.019906 0
-0.081308 -0.048397 0
-0.089382 -0.079085 0
-0.098228 -0.112021 0
-0.107661 -0.147190 0
-0.117390 -0.184461 0
-0.127006 -0.223535 0
-0.135941 -0.263866 0
-0.143450 -0.304540 0
-0.148614 -0.344142 0
-0.150376 -0.380613 0
-0.147629 -0.411115 0
-0.139390 -0.431986 0
-0.125059 -0.438846 0
-0.104762 -0.426964 0
-0.079710 -0.391977 0
-0.052461 -0.330909 0
-0.026903 -0.243240 0
-0.007798 -0.131395 0
0.000000 0.000000 0
-0.024022 0.111056 0
-0.024444 0.094391 0
-0.025727 0.076290 0
-0.027970 0.056612 0
-0.031262 0.035208 0
-0.035682 0.011922 0
-0.041287 -0.013381 0
-0.048089 -0.040816 0
-0.056085 -0.070503 0
-0.065225 -0.102555 0
-0.075390 -0.137047 0
-0.086355 -0.173963 0
-0.097783 -0.213145 0
-0.109166 -0.254227 0
-0.119779 -0.296497 0
-0.128676 -0.338730 0
-0.134687 -0.379002 0
-0.136491 -0.414490 0
-0.132771 -0.441319 0
-0.122500 -0.454578 0
-0.105337 -0.448609 0
-0.082108 -0.417744 0
-0.055238 -0.357515 0
-0.028886 -0.266113 0
-0.008531 -0.145334 0
0.000000 0.000000 0
0.004292 0.110327 0
0.005427 0.094518 0
0.005605 0.077381 0
0.004715 0.058772 0
0.002645 0.038536 0
-0.000711 0.016499 0
-0.005446 -0.007499 0
-0.011616 -0.033599 0
-0.019272 -0.061949 0
-0.028426 -0.092716 0
-0.039031 -0.126060 0
-0.050938 -0.162068 0
-0.063913 -0.200724 0
-0.077540 -0.241870 0
-0.091146 -0.285030 0
-0.103815 -0.329234 0
-0.114313 -0.372798 0
-0.121133 -0.413031 0
-0.122628 -0.445977 0
-0.117294 -0.466280 0
-0.104215 -0.467357 0
-0.083679 -0.442076 0
-0.057809 -0.384131 0
-0.030946 -0.289947 0
-0.009339 -0.160282 0
0.000000 0.000000 0
0.034931 0.107947 0
0.037722 0.093077 0
0.039470 0.077001 0
0.040049 0.059572 0
0.039332 0.040634 0
0.037193 0.020013 0
0.033505 -0.002475 0
0.028167 -0.026989 0
0.021090 -0.053693 0
0.012206 -0.082797 0
0.001484 -0.114535 0
-0.011048 -0.149080 0
-0.025262 -0.186542 0
-0.040853 -0.226994 0
-0.057241 -0.270222 0
-0.073617 -0.315564 0
-0.088732 -0.361685 0
-0.100962 -0.406174 0
-0.108350 -0.445158 0
-0.108887 -0.472991 0
-0.100978 -0.482224 0
-0.084183 -0.464150 0
-0.060106 -0.410249 0
-0.033106 -0.314583 0
-0.010252 -0.176280 0
0.000000 0.000000 0
0.068426 0.103825 0
0.072948 0.089979 0
0.076341 0.075054 0
0.078470 0.058910 0
0.079196 0.041391 0
0.078375 0.022327 0
0.075858 0.001528 0
0.071500 -0.021184 0
0.065181 -0.045988 0
0.056785 -0.073110 0
0.046208 -0.102806 0
0.033367 -0.135322 0
0.018293 -0.170920 0
0.001145 -0.209891 0
-0.017724 -0.252266 0
-0.037627 -0.297743 0
-0.057359 -0.345453 0
-0.075287 -0.393413 0
-0.089195 -0.438052 0
-0.096581 -0.473652 0
-0.095072 -0.492060 0
-0.083293 -0.482948 0
-0.062030 -0.435208 0
-0.035413 -0.339801 0
-0.011318 -0.193388 0
0.000000 0.000000 0
0.105598 0.097902 0
0.111887 0.085163 0
0.116960 0.071480 0
0.120677 0.056718 0
0.122889 0.040729 0
0.123440 0.023350 0
0.122163 0.004400 0
0.118878 -0.016312 0
0.113432 -0.038978 0
0.105659 -0.063824 0
0.095397 -0.091118 0
0.082498 -0.121164 0
0.066886 -0.154320 0
0.048565 -0.190978 0
0.027657 -0.231451 0
0.004660 -0.275929 0
-0.019509 -0.324025 0
-0.043278 -0.374338 0
-0.064239 -0.423864 0
-0.079461 -0.467114 0
-0.085737 -0.495512 0
-0.080527 -0.497192 0
-0.063425 -0.458129 0
-0.037929 -0.365296 0
-0.012616 -0.211693 0
0.000000 0.000000 0
0.147606 0.090162 0
0.155641 0.078616 0
0.162372 0.066265 0
0.167654 0.052981 0
0.171335 0.038628 0
0.173247 0.023054 0
0.173211 0.006089 0
0.171031 -0.012453 0
0.166512 -0.032769 0
0.159450 -0.055075 0
0.149629 -0.079644 0
0.136837 -0.106811 0
0.120896 -0.136987 0
0.101674 -0.170662 0
0.079151 -0.208362 0
0.053557 -0.250578 0
0.025434 -0.297514 0
-0.003919 -0.348684 0
-0.032302 -0.401869 0
-0.056296 -0.452154 0
-0.071876 -0.490994 0
-0.075134 -0.505260 0
-0.063997 -0.477806 0
-0.040725 -0.390610 0
-0.014280 -0.231317 0
0.000000 0.000000 0
0.195988 0.080659 0
0.205662 0.070397 0
0.213940 0.059467 0
0.220680 0.047755 0
0.225727 0.035136 0
0.228910 0.021474 0
0.230041 0.006616 0
0.228911 -0.009613 0
0.225299 -0.027397 0
0.218963 -0.046940 0
0.209647 -0.068505 0
0.197082 -0.092432 0
0.180997 -0.119156 0
0.161143 -0.149233 0
0.137336 -0.183334 0
0.109547 -0.222212 0
0.078041 -0.266549 0
0.043648 -0.316601 0
0.008075 -0.371488 0
-0.025382 -0.427540 0
-0.051869 -0.476673 0
-0.065891 -0.505071 0
-0.063170 -0.492538 0
-0.043835 -0.415012 0
-0.016525 -0.252417 0
0.000000 0.000000 0
0.252657 0.069550 0
0.263734 0.060665 0
0.273327 0.051246 0
0.281300 0.041193 0
0.287498 0.030397 0
0.291753 0.018740 0
0.293873 0.006088 0
0.293644 -0.007711 0
0.290826 -0.022821 0
0.285154 -0.039424 0
0.276341 -0.057763 0
0.264072 -0.078160 0
0.248008 -0.101048 0
0.227794 -0.127000 0
0.203084 -0.156766 0
0.173607 -0.191283 0
0.139285 -0.231615 0
0.100473 -0.278719 0
0.058349 -0.332838 0
0.015468 -0.392210 0
-0.023270 -0.450486 0
-0.050743 -0.493958 0
-0.059775 -0.499862 0
-0.047117 -0.437255 0
-0.019682 -0.275152 0
0.000000 0.000000 0
0.319807 0.057145 0
0.331880 0.049726 0
0.342393 0.041901 0
0.351218 0.033584 0
0.358210 0.024683 0
0.363205 0.015099 0
0.366015 0.004725 0
0.366430 -0.006566 0
0.364199 -0.018907 0
0.359051 -0.032456 0
0.350679 -0.047423 0
0.338744 -0.064099 0
0.322857 -0.082878 0
0.302581 -0.104309 0
0.277434 -0.129147 0
0.246921 -0.158413 0
0.210607 -0.193415 0
0.168313 -0.235666 0
0.120482 -0.286483 0
0.068844 -0.345921 0
0.017417 -0.410462 0
-0.026196 -0.468566 0
-0.051419 -0.496164 0
-0.049869 -0.455106 0
-0.024186 -0.299535 0
0.000000 0.000000 0
0.399687 0.043959 0
0.412128 0.038079 0
0.422965 0.031908 0
0.432083 0.025376 0
0.439348 0.018411 0
0.444608 0.010935 0
0.447687 0.002863 0
0.448384 -0.005895 0
0.446453 -0.015441 0
0.441628 -0.025904 0
0.433607 -0.037456 0
0.422042 -0.050338 0
0.406523 -0.064885 0
0.386563 -0.081578 0
0.361582 -0.101106 0
0.330900 -0.124455 0
0.293759 -0.153007 0
0.249426 -0.188593 0
0.197479 -0.233369 0
0.138429 -0.289145 0
0.074923 -0.355446 0
0.013548 -0.425123 0
-0.033228 -0.476189 0
-0.049830 -0.464488 0
-0.030328 -0.325020 0
0.000000 0.000000 0
0.494161 0.030755 0
0.506104 0.026448 0
0.516458 0.021946 0
0.525126 0.017200 0
0.531991 0.012157 0
0.536919 0.006761 0
0.539752 0.000949 0
0.540302 -0.005332 0
0.538348 -0.012152 0
0.533648 -0.019610 0
0.525920 -0.027837 0
0.514834 -0.037014 0
0.499987 -0.047399 0
0.480883 -0.059368 0
0.456895 -0.073484 0
0.427230 -0.090589 0
0.390887 -0.111942 0
0.346654 -0.139386 0
0.293224 -0.175485 0
0.229619 -0.223365 0
0.156298 -0.285580 0
0.077444 -0.360415 0
0.004567 -0.432786 0
-0.040708 -0.458006 0
-0.037134 -0.349365 0
0.000000 0.000000 0
0.604040 0.018563 0
0.614407 0.015782 0
0.623303 0.012887 0
0.630650 0.009843 0
0.636354 0.006617 0
0.640304 0.003174 0
0.642366 -0.000519 0
0.642373 -0.004492 0
0.640151 -0.008787 0
0.635494 -0.013476 0
0.628163 -0.018642 0
0.617865 -0.024404 0
0.604241 -0.030934 0
0.586830 -0.038486 0
0.565029 -0.047454 0
0.538032 -0.058447 0
0.504735 -0.072431 0
0.463635 -0.090930 0
0.412739 -0.116335 0
0.349626 -0.152219 0
0.272045 -0.203271 0
0.179888 -0.273392 0
0.079960 -0.358037 0
-0.005981 -0.422787 0
-0.038240 -0.365728 0
0.000000 0.000000 0
0.728188 0.008610 0
0.735823 0.007185 0
0.742258 0.005704 0
0.747437 0.004149 0
0.751290 0.002503 0
0.753733 0.000749 0
0.754663 -0.001120 0
0.753960 -0.003117 0
0.751499 -0.005272 0
0.747128 -0.007621 0
0.740664 -0.010208 0
0.731881 -0.013092 0
0.720496 -0.016363 0
0.706138 -0.020157 0
0.688310 -0.024687 0
0.666317 -0.030295 0
0.639158 -0.037545 0
0.605362 -0.047390 0
0.562736 -0.061476 0
0.508043 -0.082670 0
0.436774 -0.115842 0
0.343671 -0.168331 0
0.226047 -0.246917 0
0.094310 -0.339806 0
-0.006995 -0.355346 0
0.000000 0.000000 0
0.862615 0.002133 0
0.866570 0.001711 0
0.869800 0.001273 0
0.872273 0.000811 0
0.873949 0.000321 0
0.874777 -0.000198 0
0.874698 -0.000746 0
0.873656 -0.001328 0
0.871581 -0.001956 0
0.868384 -0.002641 0
0.863959 -0.003395 0
0.858176 -0.004236 0
0.850867 -0.005191 0
0.841813 -0.006301 0
0.830710 -0.007632 0
0.817126 -0.009295 0
0.800416 -0.011476 0
0.779581 -0.014507 0
0.753026 -0.019015 0
0.718105 -0.026257 0
0.670355 -0.038899 0
0.602263 -0.062665 0
0.502025 -0.108677 0
0.355346 -0.189745 0
0.162219 -0.271418 0
0.000000 0.000000 0
1.000000 0.000000 0
1.000000 0.000000 0
1.000000 0.000000 0
1.000000 0.000000 0
1.000000 0.000000 0
1.000000 0.000000 0
1.000000 0.000000 0
1.000000 0.000000 0
1.000000 0.000000 0
1.000000 0.000000 0
1.000000 0.000000 0
1.000000 0.000000 0
1.000000 0.000000 0
1.000000 0.000000 0
1.000000 0.000000 0
1.000000 0.000000 0
1.000000 0.000000 0
1.000000 0.000000 0
1.000000 0.000000 0
1.000000 0.000000 0
1.000000 0.000000 0
1.000000 0.000000 0
1.000000 0.000000 0
1.000000 0.000000 0
1.000000 0.000000 0
1.000000 0.000000 0

CELL_DATA 625 
SCALARS pressure float 1 
LOOKUP_TABLE default 
-0.027887
-0.027921
-0.027655
-0.027062
-0.026095
-0.024733
-0.022971
-0.020816
-0.018296
-0.015457
-0.012370
-0.009127
-0.005843
-0.002653
0.000297
0.002858
0.004890
0.006276
0.006936
0.006840
0.006011
0.004524
0.002488
0.000033
-0.002726
-0.032655
-0.032852
-0.032729
-0.032249
-0.031369
-0.030046
-0.028264
-0.026024
-0.023346
-0.020270
-0.016865
-0.013223
-0.009467
-0.005743
-0.002218
0.000933
0.003536
0.005441
0.006536
0.006761
0.006121
0.004686
0.002576
-0.000067
-0.003104
-0.037538
-0.037919
-0.037961
-0.037618
-0.036851
-0.035593
-0.033821
-0.031525
-0.028714
-0.025421
-0.021708
-0.017667
-0.013425
-0.009138
-0.004992
-0.001189
0.002065
0.004577
0.006195
0.006825
0.006445
0.005114
0.002956
0.000133
-0.003198
-0.042454
-0.043035
-0.043259
-0.043073
-0.042443
-0.041280
-0.039547
-0.037224
-0.034308
-0.030823
-0.026821
-0.022392
-0.017659
-0.012789
-0.007983
-0.003468
0.000511
0.003721
0.005959
0.007087
0.007049
0.005883
0.003715
0.000722
-0.002914
-0.047310
-0.048102
-0.048523
-0.048509
-0.048034
-0.046991
-0.045326
-0.043006
-0.040016
-0.036367
-0.032102
-0.027299
-0.022082
-0.016618
-0.011122
-0.005846
-0.001068
0.002928
0.005889
0.007618
0.008015
0.007088
0.004956
0.001810
-0.002141
-0.052008
-0.053018
-0.053648
-0.053829
-0.053497
-0.052601
-0.051030
-0.048740
-0.045705
-0.041922
-0.037420
-0.032266
-0.026577
-0.020518
-0.014312
-0.008232
-0.002591
0.002280
0.006067
0.008509
0.009445
0.008843
0.006805
0.003532
-0.000740
-0.056450
-0.057677
-0.058518
-0.058894
-0.058729
-0.057983
-0.056519
-0.054281
-0.051225
-0.047335
-0.042623
-0.037144
-0.031000
-0.024353
-0.017427
-0.010511
-0.003947
0.001883
0.006601
0.009873
0.011465
0.011287
0.009413
0.006048
0.001453
-0.060540
-0.061978
-0.063025
-0.063593
-0.063595
-0.063002
-0.061654
-0.059478
-0.056420
-0.052443
-0.047545
-0.041763
-0.035185