# vtk DataFile Version 2.0
generated by CFD-lab course output (written by Tobias Neckel) 
ASCII

DATASET STRUCTURED_GRID
DIMENSIONS  26 26 1 
POINTS 676 float

0.000000 0.500000 0
0.020000 0.500000 0
0.040000 0.500000 0
0.060000 0.500000 0
0.080000 0.500000 0
0.100000 0.500000 0
0.120000 0.500000 0
0.140000 0.500000 0
0.160000 0.500000 0
0.180000 0.500000 0
0.200000 0.500000 0
0.220000 0.500000 0
0.240000 0.500000 0
0.260000 0.500000 0
0.280000 0.500000 0
0.300000 0.500000 0
0.320000 0.500000 0
0.340000 0.500000 0
0.360000 0.500000 0
0.380000 0.500000 0
0.400000 0.500000 0
0.420000 0.500000 0
0.440000 0.500000 0
0.460000 0.500000 0
0.480000 0.500000 0
0.500000 0.500000 0
0.000000 0.520000 0
0.020000 0.520000 0
0.040000 0.520000 0
0.060000 0.520000 0
0.080000 0.520000 0
0.100000 0.520000 0
0.120000 0.520000 0
0.140000 0.520000 0
0.160000 0.520000 0
0.180000 0.520000 0
0.200000 0.520000 0
0.220000 0.520000 0
0.240000 0.520000 0
0.260000 0.520000 0
0.280000 0.520000 0
0.300000 0.520000 0
0.320000 0.520000 0
0.340000 0.520000 0
0.360000 0.520000 0
0.380000 0.520000 0
0.400000 0.520000 0
0.420000 0.520000 0
0.440000 0.520000 0
0.460000 0.520000 0
0.480000 0.520000 0
0.500000 0.520000 0
0.000000 0.540000 0
0.020000 0.540000 0
0.040000 0.540000 0
0.060000 0.540000 0
0.080000 0.540000 0
0.100000 0.540000 0
0.120000 0.540000 0
0.140000 0.540000 0
0.160000 0.540000 0
0.180000 0.540000 0
0.200000 0.540000 0
0.220000 0.540000 0
0.240000 0.540000 0
0.260000 0.540000 0
0.280000 0.540000 0
0.300000 0.540000 0
0.320000 0.540000 0
0.340000 0.540000 0
0.360000 0.540000 0
0.380000 0.540000 0
0.400000 0.540000 0
0.420000 0.540000 0
0.440000 0.540000 0
0.460000 0.540000 0
0.480000 0.540000 0
0.500000 0.540000 0
0.000000 0.560000 0
0.020000 0.560000 0
0.040000 0.560000 0
0.060000 0.560000 0
0.080000 0.560000 0
0.100000 0.560000 0
0.120000 0.560000 0
0.140000 0.560000 0
0.160000 0.560000 0
0.180000 0.560000 0
0.200000 0.560000 0
0.220000 0.560000 0
0.240000 0.560000 0
0.260000 0.560000 0
0.280000 0.560000 0
0.300000 0.560000 0
0.320000 0.560000 0
0.340000 0.560000 0
0.360000 0.560000 0
0.380000 0.560000 0
0.400000 0.560000 0
0.420000 0.560000 0
0.440000 0.560000 0
0.460000 0.560000 0
0.480000 0.560000 0
0.500000 0.560000 0
0.000000 0.580000 0
0.020000 0.580000 0
0.040000 0.580000 0
0.060000 0.580000 0
0.080000 0.580000 0
0.100000 0.580000 0
0.120000 0.580000 0
0.140000 0.580000 0
0.160000 0.580000 0
0.180000 0.580000 0
0.200000 0.580000 0
0.220000 0.580000 0
0.240000 0.580000 0
0.260000 0.580000 0
0.280000 0.580000 0
0.300000 0.580000 0
0.320000 0.580000 0
0.340000 0.580000 0
0.360000 0.580000 0
0.380000 0.580000 0
0.400000 0.580000 0
0.420000 0.580000 0
0.440000 0.580000 0
0.460000 0.580000 0
0.480000 0.580000 0
0.500000 0.580000 0
0.000000 0.600000 0
0.020000 0.600000 0
0.040000 0.600000 0
0.060000 0.600000 0
0.080000 0.600000 0
0.100000 0.600000 0
0.120000 0.600000 0
0.140000 0.600000 0
0.160000 0.600000 0
0.180000 0.600000 0
0.200000 0.600000 0
0.220000 0.600000 0
0.240000 0.600000 0
0.260000 0.600000 0
0.280000 0.600000 0
0.300000 0.600000 0
0.320000 0.600000 0
0.340000 0.600000 0
0.360000 0.600000 0
0.380000 0.600000 0
0.400000 0.600000 0
0.420000 0.600000 0
0.440000 0.600000 0
0.460000 0.600000 0
0.480000 0.600000 0
0.500000 0.600000 0
0.000000 0.620000 0
0.020000 0.620000 0
0.040000 0.620000 0
0.060000 0.620000 0
0.080000 0.620000 0
0.100000 0.620000 0
0.120000 0.620000 0
0.140000 0.620000 0
0.160000 0.620000 0
0.180000 0.620000 0
0.200000 0.620000 0
0.220000 0.620000 0
0.240000 0.620000 0
0.260000 0.620000 0
0.280000 0.620000 0
0.300000 0.620000 0
0.320000 0.620000 0
0.340000 0.620000 0
0.360000 0.620000 0
0.380000 0.620000 0
0.400000 0.620000 0
0.420000 0.620000 0
0.440000 0.620000 0
0.460000 0.620000 0
0.480000 0.620000 0
0.500000 0.620000 0
0.000000 0.640000 0
0.020000 0.640000 0
0.040000 0.640000 0
0.060000 0.640000 0
0.080000 0.640000 0
0.100000 0.640000 0
0.120000 0.640000 0
0.140000 0.640000 0
0.160000 0.640000 0
0.180000 0.640000 0
0.200000 0.640000 0
0.220000 0.640000 0
0.240000 0.640000 0
0.260000 0.640000 0
0.280000 0.640000 0
0.300000 0.640000 0
0.320000 0.640000 0
0.340000 0.640000 0
0.360000 0.640000 0
0.380000 0.640000 0
0.400000 0.640000 0
0.420000 0.640000 0
0.440000 0.640000 0
0.460000 0.640000 0
0.480000 0.640000 0
0.500000 0.640000 0
0.000000 0.660000 0
0.020000 0.660000 0
0.040000 0.660000 0
0.060000 0.660000 0
0.080000 0.660000 0
0.100000 0.660000 0
0.120000 0.660000 0
0.140000 0.660000 0
0.160000 0.660000 0
0.180000 0.660000 0
0.200000 0.660000 0
0.220000 0.660000 0
0.240000 0.660000 0
0.260000 0.660000 0
0.280000 0.660000 0
0.300000 0.660000 0
0.320000 0.660000 0
0.340000 0.660000 0
0.360000 0.660000 0
0.380000 0.660000 0
0.400000 0.660000 0
0.420000 0.660000 0
0.440000 0.660000 0
0.460000 0.660000 0
0.480000 0.660000 0
0.500000 0.660000 0
0.000000 0.680000 0
0.020000 0.680000 0
0.040000 0.680000 0
0.060000 0.680000 0
0.080000 0.680000 0
0.100000 0.680000 0
0.120000 0.680000 0
0.140000 0.680000 0
0.160000 0.680000 0
0.180000 0.680000 0
0.200000 0.680000 0
0.220000 0.680000 0
0.240000 0.680000 0
0.260000 0.680000 0
0.280000 0.680000 0
0.300000 0.680000 0
0.320000 0.680000 0
0.340000 0.680000 0
0.360000 0.680000 0
0.380000 0.680000 0
0.400000 0.680000 0
0.420000 0.680000 0
0.440000 0.680000 0
0.460000 0.680000 0
0.480000 0.680000 0
0.500000 0.680000 0
0.000000 0.700000 0
0.020000 0.700000 0
0.040000 0.700000 0
0.060000 0.700000 0
0.080000 0.700000 0
0.100000 0.700000 0
0.120000 0.700000 0
0.140000 0.700000 0
0.160000 0.700000 0
0.180000 0.700000 0
0.200000 0.700000 0
0.220000 0.700000 0
0.240000 0.700000 0
0.260000 0.700000 0
0.280000 0.700000 0
0.300000 0.700000 0
0.320000 0.700000 0
0.340000 0.700000 0
0.360000 0.700000 0
0.380000 0.700000 0
0.400000 0.700000 0
0.420000 0.700000 0
0.440000 0.700000 0
0.460000 0.700000 0
0.480000 0.700000 0
0.500000 0.700000 0
0.000000 0.720000 0
0.020000 0.720000 0
0.040000 0.720000 0
0.060000 0.720000 0
0.080000 0.720000 0
0.100000 0.720000 0
0.120000 0.720000 0
0.140000 0.720000 0
0.160000 0.720000 0
0.180000 0.720000 0
0.200000 0.720000 0
0.220000 0.720000 0
0.240000 0.720000 0
0.260000 0.720000 0
0.280000 0.720000 0
0.300000 0.720000 0
0.320000 0.720000 0
0.340000 0.720000 0
0.360000 0.720000 0
0.380000 0.720000 0
0.400000 0.720000 0
0.420000 0.720000 0
0.440000 0.720000 0
0.460000 0.720000 0
0.480000 0.720000 0
0.500000 0.720000 0
0.000000 0.740000 0
0.020000 0.740000 0
0.040000 0.740000 0
0.060000 0.740000 0
0.080000 0.740000 0
0.100000 0.740000 0
0.120000 0.740000 0
0.140000 0.740000 0
0.160000 0.740000 0
0.180000 0.740000 0
0.200000 0.740000 0
0.220000 0.740000 0
0.240000 0.740000 0
0.260000 0.740000 0
0.280000 0.740000 0
0.300000 0.740000 0
0.320000 0.740000 0
0.340000 0.740000 0
0.360000 0.740000 0
0.380000 0.740000 0
0.400000 0.740000 0
0.420000 0.740000 0
0.440000 0.740000 0
0.460000 0.740000 0
0.480000 0.740000 0
0.500000 0.740000 0
0.000000 0.760000 0
0.020000 0.760000 0
0.040000 0.760000 0
0.060000 0.760000 0
0.080000 0.760000 0
0.100000 0.760000 0
0.120000 0.760000 0
0.140000 0.760000 0
0.160000 0.760000 0
0.180000 0.760000 0
0.200000 0.760000 0
0.220000 0.760000 0
0.240000 0.760000 0
0.260000 0.760000 0
0.280000 0.760000 0
0.300000 0.760000 0
0.320000 0.760000 0
0.340000 0.760000 0
0.360000 0.760000 0
0.380000 0.760000 0
0.400000 0.760000 0
0.420000 0.760000 0
0.440000 0.760000 0
0.460000 0.760000 0
0.480000 0.760000 0
0.500000 0.760000 0
0.000000 0.780000 0
0.020000 0.780000 0
0.040000 0.780000 0
0.060000 0.780000 0
0.080000 0.780000 0
0.100000 0.780000 0
0.120000 0.780000 0
0.140000 0.780000 0
0.160000 0.780000 0
0.180000 0.780000 0
0.200000 0.780000 0
0.220000 0.780000 0
0.240000 0.780000 0
0.260000 0.780000 0
0.280000 0.780000 0
0.300000 0.780000 0
0.320000 0.780000 0
0.340000 0.780000 0
0.360000 0.780000 0
0.380000 0.780000 0
0.400000 0.780000 0
0.420000 0.780000 0
0.440000 0.780000 0
0.460000 0.780000 0
0.480000 0.780000 0
0.500000 0.780000 0
0.000000 0.800000 0
0.020000 0.800000 0
0.040000 0.800000 0
0.060000 0.800000 0
0.080000 0.800000 0
0.100000 0.800000 0
0.120000 0.800000 0
0.140000 0.800000 0
0.160000 0.800000 0
0.180000 0.800000 0
0.200000 0.800000 0
0.220000 0.800000 0
0.240000 0.800000 0
0.260000 0.800000 0
0.280000 0.800000 0
0.300000 0.800000 0
0.320000 0.800000 0
0.340000 0.800000 0
0.360000 0.800000 0
0.380000 0.800000 0
0.400000 0.800000 0
0.420000 0.800000 0
0.440000 0.800000 0
0.460000 0.800000 0
0.480000 0.800000 0
0.500000 0.800000 0
0.000000 0.820000 0
0.020000 0.820000 0
0.040000 0.820000 0
0.060000 0.820000 0
0.080000 0.820000 0
0.100000 0.820000 0
0.120000 0.820000 0
0.140000 0.820000 0
0.160000 0.820000 0
0.180000 0.820000 0
0.200000 0.820000 0
0.220000 0.820000 0
0.240000 0.820000 0
0.260000 0.820000 0
0.280000 0.820000 0
0.300000 0.820000 0
0.320000 0.820000 0
0.340000 0.820000 0
0.360000 0.820000 0
0.380000 0.820000 0
0.400000 0.820000 0
0.420000 0.820000 0
0.440000 0.820000 0
0.460000 0.820000 0
0.480000 0.820000 0
0.500000 0.820000 0
0.000000 0.840000 0
0.020000 0.840000 0
0.040000 0.840000 0
0.060000 0.840000 0
0.080000 0.840000 0
0.100000 0.840000 0
0.120000 0.840000 0
0.140000 0.840000 0
0.160000 0.840000 0
0.180000 0.840000 0
0.200000 0.840000 0
0.220000 0.840000 0
0.240000 0.840000 0
0.260000 0.840000 0
0.280000 0.840000 0
0.300000 0.840000 0
0.320000 0.840000 0
0.340000 0.840000 0
0.360000 0.840000 0
0.380000 0.840000 0
0.400000 0.840000 0
0.420000 0.840000 0
0.440000 0.840000 0
0.460000 0.840000 0
0.480000 0.840000 0
0.500000 0.840000 0
0.000000 0.860000 0
0.020000 0.860000 0
0.040000 0.860000 0
0.060000 0.860000 0
0.080000 0.860000 0
0.100000 0.860000 0
0.120000 0.860000 0
0.140000 0.860000 0
0.160000 0.860000 0
0.180000 0.860000 0
0.200000 0.860000 0
0.220000 0.860000 0
0.240000 0.860000 0
0.260000 0.860000 0
0.280000 0.860000 0
0.300000 0.860000 0
0.320000 0.860000 0
0.340000 0.860000 0
0.360000 0.860000 0
0.380000 0.860000 0
0.400000 0.860000 0
0.420000 0.860000 0
0.440000 0.860000 0
0.460000 0.860000 0
0.480000 0.860000 0
0.500000 0.860000 0
0.000000 0.880000 0
0.020000 0.880000 0
0.040000 0.880000 0
0.060000 0.880000 0
0.080000 0.880000 0
0.100000 0.880000 0
0.120000 0.880000 0
0.140000 0.880000 0
0.160000 0.880000 0
0.180000 0.880000 0
0.200000 0.880000 0
0.220000 0.880000 0
0.240000 0.880000 0
0.260000 0.880000 0
0.280000 0.880000 0
0.300000 0.880000 0
0.320000 0.880000 0
0.340000 0.880000 0
0.360000 0.880000 0
0.380000 0.880000 0
0.400000 0.880000 0
0.420000 0.880000 0
0.440000 0.880000 0
0.460000 0.880000 0
0.480000 0.880000 0
0.500000 0.880000 0
0.000000 0.900000 0
0.020000 0.900000 0
0.040000 0.900000 0
0.060000 0.900000 0
0.080000 0.900000 0
0.100000 0.900000 0
0.120000 0.900000 0
0.140000 0.900000 0
0.160000 0.900000 0
0.180000 0.900000 0
0.200000 0.900000 0
0.220000 0.900000 0
0.240000 0.900000 0
0.260000 0.900000 0
0.280000 0.900000 0
0.300000 0.900000 0
0.320000 0.900000 0
0.340000 0.900000 0
0.360000 0.900000 0
0.380000 0.900000 0
0.400000 0.900000 0
0.420000 0.900000 0
0.440000 0.900000 0
0.460000 0.900000 0
0.480000 0.900000 0
0.500000 0.900000 0
0.000000 0.920000 0
0.020000 0.920000 0
0.040000 0.920000 0
0.060000 0.920000 0
0.080000 0.920000 0
0.100000 0.920000 0
0.120000 0.920000 0
0.140000 0.920000 0
0.160000 0.920000 0
0.180000 0.920000 0
0.200000 0.920000 0
0.220000 0.920000 0
0.240000 0.920000 0
0.260000 0.920000 0
0.280000 0.920000 0
0.300000 0.920000 0
0.320000 0.920000 0
0.340000 0.920000 0
0.360000 0.920000 0
0.380000 0.920000 0
0.400000 0.920000 0
0.420000 0.920000 0
0.440000 0.920000 0
0.460000 0.920000 0
0.480000 0.920000 0
0.500000 0.920000 0
0.000000 0.940000 0
0.020000 0.940000 0
0.040000 0.940000 0
0.060000 0.940000 0
0.080000 0.940000 0
0.100000 0.940000 0
0.120000 0.940000 0
0.140000 0.940000 0
0.160000 0.940000 0
0.180000 0.940000 0
0.200000 0.940000 0
0.220000 0.940000 0
0.240000 0.940000 0
0.260000 0.940000 0
0.280000 0.940000 0
0.300000 0.940000 0
0.320000 0.940000 0
0.340000 0.940000 0
0.360000 0.940000 0
0.380000 0.940000 0
0.400000 0.940000 0
0.420000 0.940000 0
0.440000 0.940000 0
0.460000 0.940000 0
0.480000 0.940000 0
0.500000 0.940000 0
0.000000 0.960000 0
0.020000 0.960000 0
0.040000 0.960000 0
0.060000 0.960000 0
0.080000 0.960000 0
0.100000 0.960000 0
0.120000 0.960000 0
0.140000 0.960000 0
0.160000 0.960000 0
0.180000 0.960000 0
0.200000 0.960000 0
0.220000 0.960000 0
0.240000 0.960000 0
0.260000 0.960000 0
0.280000 0.960000 0
0.300000 0.960000 0
0.320000 0.960000 0
0.340000 0.960000 0
0.360000 0.960000 0
0.380000 0.960000 0
0.400000 0.960000 0
0.420000 0.960000 0
0.440000 0.960000 0
0.460000 0.960000 0
0.480000 0.960000 0
0.500000 0.960000 0
0.000000 0.980000 0
0.020000 0.980000 0
0.040000 0.980000 0
0.060000 0.980000 0
0.080000 0.980000 0
0.100000 0.980000 0
0.120000 0.980000 0
0.140000 0.980000 0
0.160000 0.980000 0
0.180000 0.980000 0
0.200000 0.980000 0
0.220000 0.980000 0
0.240000 0.980000 0
0.260000 0.980000 0
0.280000 0.980000 0
0.300000 0.980000 0
0.320000 0.980000 0
0.340000 0.980000 0
0.360000 0.980000 0
0.380000 0.980000 0
0.400000 0.980000 0
0.420000 0.980000 0
0.440000 0.980000 0
0.460000 0.980000 0
0.480000 0.980000 0
0.500000 0.980000 0
0.000000 1.000000 0
0.020000 1.000000 0
0.040000 1.000000 0
0.060000 1.000000 0
0.080000 1.000000 0
0.100000 1.000000 0
0.120000 1.000000 0
0.140000 1.000000 0
0.160000 1.000000 0
0.180000 1.000000 0
0.200000 1.000000 0
0.220000 1.000000 0
0.240000 1.000000 0
0.260000 1.000000 0
0.280000 1.000000 0
0.300000 1.000000 0
0.320000 1.000000 0
0.340000 1.000000 0
0.360000 1.000000 0
0.380000 1.000000 0
0.400000 1.000000 0
0.420000 1.000000 0
0.440000 1.000000 0
0.460000 1.000000 0
0.480000 1.000000 0
0.500000 1.000000 0
POINT_DATA 676 

VECTORS velocity float
0.000000 0.000000 0
-0.001143 0.034620 0
-0.004236 0.064515 0
-0.008960 0.089924 0
-0.015022 0.111161 0
-0.022155 0.128583 0
-0.030123 0.142566 0
-0.038719 0.153484 0
-0.047772 0.161687 0
-0.057136 0.167497 0
-0.066697 0.171194 0
-0.076360 0.173014 0
-0.086056 0.173152 0
-0.095730 0.171760 0
-0.105341 0.168951 0
-0.114859 0.164805 0
-0.124261 0.159373 0
-0.133528 0.152681 0
-0.142643 0.144738 0
-0.151587 0.135540 0
-0.160340 0.125071 0
-0.168873 0.113315 0
-0.177153 0.100251 0
-0.185134 0.085866 0
-0.192759 0.070155 0
-0.199957 0.053125 0
0.000000 0.000000 0
-0.001118 0.036718 0
-0.004150 0.068390 0
-0.008788 0.095272 0
-0.014740 0.117703 0
-0.021740 0.136068 0
-0.029549 0.150772 0
-0.037961 0.162221 0
-0.046799 0.170797 0
-0.055920 0.176848 0
-0.065208 0.180683 0
-0.074572 0.182561 0
-0.083945 0.182696 0
-0.093278 0.181255 0
-0.102535 0.178366 0
-0.111694 0.174116 0
-0.120740 0.168563 0
-0.129662 0.161737 0
-0.138454 0.153648 0
-0.147107 0.144288 0
-0.155611 0.133639 0
-0.163951 0.121677 0
-0.172104 0.108373 0
-0.180037 0.093702 0
-0.187704 0.077647 0
-0.195048 0.060199 0
0.000000 0.000000 0
-0.001090 0.038770 0
-0.004057 0.072185 0
-0.008598 0.100514 0
-0.014425 0.124113 0
-0.021269 0.143392 0
-0.028889 0.158787 0
-0.037073 0.170734 0
-0.045644 0.179647 0
-0.054458 0.185906 0
-0.063398 0.189846 0
-0.072377 0.191752 0
-0.081333 0.191858 0
-0.090220 0.190350 0
-0.099012 0.187368 0
-0.107692 0.183010 0
-0.116255 0.177340 0
-0.124700 0.170395 0
-0.133031 0.162183 0
-0.141252 0.152697 0
-0.149363 0.141916 0
-0.157362 0.129808 0
-0.165240 0.116337 0
-0.172977 0.101467 0
-0.180543 0.085166 0
-0.187892 0.067412 0
0.000000 0.000000 0
-0.001063 0.040775 0
-0.003965 0.075898 0
-0.008410 0.105641 0
-0.014106 0.130375 0
-0.020781 0.150531 0
-0.028186 0.166576 0
-0.036107 0.178977 0
-0.044362 0.188181 0
-0.052805 0.194601 0
-0.061323 0.198602 0
-0.069831 0.200496 0
-0.078271 0.200538 0
-0.086605 0.198934 0
-0.094814 0.195838 0
-0.102890 0.191359 0
-0.110839 0.185572 0
-0.118669 0.178514 0
-0.126395 0.170199 0
-0.134033 0.160620 0
-0.141598 0.149750 0
-0.149099 0.137554 0
-0.156542 0.123988 0
-0.163924 0.109005 0
-0.171229 0.092562 0
-0.178429 0.074620 0
0.000000 0.000000 0
-0.001041 0.042736 0
-0.003888 0.079532 0
-0.008246 0.110655 0
-0.013818 0.136484 0
-0.020321 0.157472 0
-0.027498 0.174113 0
-0.035126 0.186909 0
-0.043020 0.196345 0
-0.051033 0.202867 0
-0.059053 0.206872 0
-0.067002 0.208700 0
-0.074825 0.208632 0
-0.082495 0.206893 0
-0.090000 0.203653 0
-0.097344 0.199034 0
-0.104541 0.193119 0
-0.111612 0.185951 0
-0.118584 0.177547 0
-0.125486 0.167900 0
-0.132344 0.156982 0
-0.139185 0.144752 0
-0.146027 0.131161 0
-0.152884 0.116153 0
-0.159757 0.099671 0
-0.166637 0.081661 0
0.000000 0.000000 0
-0.001027 0.044663 0
-0.003839 0.083103 0
-0.008136 0.115571 0
-0.013605 0.142449 0
-0.019947 0.164211 0
-0.026891 0.181381 0
-0.034205 0.194498 0
-0.041699 0.204088 0
-0.049224 0.210635 0
-0.056673 0.214571 0
-0.063971 0.216268 0
-0.071075 0.216032 0
-0.077966 0.214109 0
-0.084642 0.210686 0
-0.091120 0.205900 0
-0.097425 0.199840 0
-0.103592 0.192558 0
-0.109658 0.184073 0
-0.115666 0.174380 0
-0.121656 0.163449 0
-0.127669 0.151236 0
-0.133739 0.137687 0
-0.139897 0.122736 0
-0.146162 0.106316 0
-0.152542 0.088360 0
0.000000 0.000000 0
-0.001026 0.046575 0
-0.003838 0.086641 0
-0.008115 0.120421 0
-0.013520 0.148295 0
-0.019728 0.170758 0
-0.026449 0.188371 0
-0.033437 0.201717 0
-0.040495 0.211364 0
-0.047476 0.217841 0
-0.054277 0.221619 0
-0.060833 0.223102 0
-0.067110 0.222627 0
-0.073103 0.220460 0
-0.078822 0.216807 0
-0.084298 0.211817 0
-0.089569 0.205590 0
-0.094681 0.198184 0
-0.099688 0.189621 0
-0.104644 0.179898 0
-0.109604 0.168985 0
-0.114623 0.156836 0
-0.119751 0.143389 0
-0.125033 0.128575 0
-0.130508 0.112316 0
-0.136205 0.094532 0
0.000000 0.000000 0
-0.001047 0.048501 0
-0.003908 0.090192 0
-0.008228 0.125253 0
-0.013629 0.154063 0
-0.019748 0.177140 0
-0.026268 0.195089 0
-0.032925 0.208544 0
-0.039517 0.218127 0
-0.045897 0.224417 0
-0.051971 0.227928 0
-0.057687 0.229101 0
-0.063026 0.228302 0
-0.067995 0.225821 0
-0.072625 0.221882 0
-0.076958 0.216646 0
-0.081049 0.210223 0
-0.084958 0.202677 0
-0.088753 0.194036 0
-0.092500 0.184296 0
-0.096270 0.173427 0
-0.100130 0.161383 0
-0.104147 0.148097 0
-0.108381 0.133494 0
-0.112888 0.117488 0
-0.117717 0.099990 0
0.000000 0.000000 0
-0.001098 0.050482 0
-0.004079 0.093822 0
-0.008530 0.130142 0
-0.014012 0.159816 0
-0.020108 0.183398 0
-0.026462 0.201548 0
-0.032791 0.214965 0
-0.038885 0.224336 0
-0.044604 0.230295 0
-0.049866 0.233408 0
-0.054636 0.234156 0
-0.058915 0.232935 0
-0.062731 0.230060 0
-0.066131 0.225770 0
-0.069177 0.220241 0
-0.071939 0.213590 0
-0.074494 0.205887 0
-0.076923 0.197163 0
-0.079308 0.187415 0
-0.081730 0.176615 0
-0.084273 0.164713 0
-0.087016 0.151640 0
-0.090034 0.137317 0
-0.093400 0.121652 0
-0.097180 0.104547 0
0.000000 0.000000 0
-0.001191 0.052579 0
-0.004390 0.097624 0
-0.009093 0.135187 0
-0.014768 0.165641 0
-0.020927 0.189591 0
-0.027162 0.207772 0
-0.033166 0.220967 0
-0.038728 0.229941 0
-0.043716 0.235399 0
-0.048069 0.237960 0
-0.051775 0.238150 0
-0.054861 0.236396 0
-0.057379 0.233037 0
-0.059400 0.228328 0
-0.061007 0.222454 0
-0.062288 0.215541 0
-0.063336 0.207662 0
-0.064247 0.198850 0
-0.065117 0.189103 0
-0.066040 0.178393 0
-0.067113 0.166668 0
-0.068426 0.153857 0
-0.070070 0.139878 0
-0.072130 0.124634 0
-0.074691 0.108021 0
0.000000 0.000000 0
-0.001342 0.054872 0
-0.004891 0.101724 0
-0.010005 0.140521 0
-0.016019 0.171650 0
-0.022344 0.195792 0
-0.028514 0.213788 0
-0.034195 0.226531 0
-0.039176 0.234885 0
-0.043346 0.239637 0
-0.046671 0.241467 0
-0.049175 0.240948 0
-0.050915 0.238539 0
-0.051976 0.234599 0
-0.052457 0.229398 0
-0.052462 0.223129 0
-0.052101 0.215919 0
-0.051486 0.207847 0
-0.050726 0.198944 0
-0.049931 0.189208 0
-0.049208 0.178611 0
-0.048663 0.167098 0
-0.048401 0.154597 0
-0.048523 0.141021 0
-0.049126 0.126273 0
-0.050308 0.110243 0
0.000000 0.000000 0
-0.001573 0.057470 0
-0.005649 0.106287 0
-0.011377 0.146314 0
-0.017909 0.177980 0
-0.024523 0.202086 0
-0.030679 0.219623 0
-0.036019 0.231629 0
-0.040345 0.239092 0
-0.043578 0.242894 0
-0.045727 0.243789 0
-0.046858 0.242394 0
-0.047074 0.239198 0
-0.046495 0.234578 0
-0.045253 0.228813 0
-0.043480 0.222099 0
-0.041308 0.214565 0
-0.038867 0.206287 0
-0.036280 0.197294 0
-0.033671 0.187584 0
-0.031158 0.177125 0
-0.028858 0.165861 0
-0.026885 0.153717 0
-0.025350 0.140603 0
-0.024359 0.126420 0
-0.024022 0.111056 0
0.000000 0.000000 0
-0.001914 0.060521 0
-0.006751 0.111528 0
-0.013354 0.152781 0
-0.020615 0.184795 0
-0.027644 0.208561 0
-0.033818 0.225285 0
-0.038765 0.236198 0
-0.042316 0.242444 0
-0.044443 0.245018 0
-0.045217 0.244747 0
-0.044762 0.242295 0
-0.043235 0.238176 0
-0.040802 0.232779 0
-0.037631 0.226383 0
-0.033884 0.219184 0
-0.029716 0.211306 0
-0.025275 0.202819 0
-0.020702 0.193748 0
-0.016131 0.184086 0
-0.011689 0.173798 0
-0.007504 0.162825 0
-0.003696 0.151089 0
-0.000384 0.138495 0
0.002317 0.124945 0
0.004292 0.110327 0
0.000000 0.000000 0
-0.002408 0.064221 0
-0.008317 0.117727 0
-0.016115 0.160178 0
-0.024342 0.192270 0
-0.031896 0.215288 0
-0.038072 0.230744 0
-0.042506 0.240127 0
-0.045085 0.244770 0
-0.045863 0.245795 0
-0.044994 0.244108 0
-0.042679 0.240412 0
-0.039140 0.235238 0
-0.034595 0.228973 0
-0.029253 0.221894 0
-0.023309 0.214184 0
-0.016942 0.205956 0
-0.010316 0.197273 0
-0.003589 0.188150 0
0.003090 0.178571 0
0.009586 0.168498 0
0.015771 0.157869 0
0.021519 0.146598 0
0.026710 0.134590 0
0.031220 0.121743 0
0.034931 0.107947 0
0.000000 0.000000 0
-0.003118 0.068838 0
-0.010506 0.125235 0
-0.019886 0.168806 0
-0.029318 0.200576 0
-0.037452 0.222291 0
-0.043519 0.235895 0
-0.047204 0.243211 0
-0.048496 0.245801 0
-0.047570 0.244927 0
-0.044692 0.241563 0
-0.040161 0.236441 0
-0.034272 0.230092 0
-0.027306 0.222892 0
-0.019512 0.215097 0
-0.011117 0.206873 0
-0.002324 0.198313 0
0.006673 0.189465 0
0.015709 0.180342 0
0.024628 0.170911 0
0.033293 0.161117 0
0.041577 0.150892 0
0.049356 0.140150 0
0.056506 0.128795 0
0.062904 0.116723 0
0.068426 0.103825 0
0.000000 0.000000 0
-0.004135 0.074727 0
-0.013536 0.134494 0
-0.024937 0.178990 0
-0.035767 0.209837 0
-0.044410 0.229490 0
-0.050085 0.240496 0
-0.052598 0.245103 0
-0.052113 0.245136 0
-0.048973 0.241992 0
-0.043590 0.236699 0
-0.036380 0.229992 0
-0.027725 0.222383 0
-0.017964 0.214213 0
-0.007390 0.205706 0
0.003730 0.196996 0
0.015162 0.188166 0
0.026702 0.179240 0
0.038183 0.170196 0
0.049459 0.160987 0
0.060392 0.151549 0
0.070857 0.141806 0
0.080732 0.131669 0
0.089895 0.121042 0
0.098224 0.109823 0
0.105598 0.097902 0
0.000000 0.000000 0
-0.005602 0.082373 0
-0.017703 0.146036 0
-0.031576 0.191037 0
-0.043850 0.220049 0
-0.052678 0.236609 0
-0.057383 0.244083 0
-0.058019 0.245239 0
-0.055012 0.242176 0
-0.048939 0.236404 0
-0.040393 0.228970 0
-0.029921 0.220576 0
-0.017994 0.211676 0
-0.005006 0.202558 0
0.008685 0.193404 0
0.022781 0.184321 0
0.037040 0.175341 0
0.051274 0.166444 0
0.065321 0.157585 0
0.079038 0.148702 0
0.092297 0.139719 0
0.104978 0.130553 0
0.116966 0.121112 0
0.128145 0.111302 0
0.138398 0.101020 0
0.147606 0.090162 0
0.000000 0.000000 0
-0.007742 0.092430 0
-0.023398 0.160468 0
-0.040090 0.205137 0
-0.053510 0.230938 0
-0.061738 0.243024 0
-0.064428 0.245837 0
-0.062060 0.242732 0
-0.055450 0.236057 0
-0.045469 0.227373 0
-0.032918 0.217681 0
-0.018481 0.207593 0
-0.002702 0.197468 0
0.013928 0.187534 0
0.031027 0.177919 0
0.048307 0.168641 0
0.065548 0.159672 0
0.082574 0.150959 0
0.099235 0.142432 0
0.115405 0.134010 0
0.130969 0.125609 0
0.145821 0.117137 0
0.159855 0.108502 0
0.172967 0.099610 0
0.185049 0.090362 0
0.195988 0.080659 0
0.000000 0.000000 0
-0.010922 0.105772 0
-0.031110 0.178384 0
-0.050581 0.221149 0
-0.064139 0.241698 0
-0.070189 0.247527 0
-0.069100 0.244404 0
-0.062034 0.236261 0
-0.050328 0.225585 0
-0.035193 0.213873 0
-0.017638 0.201982 0
0.001534 0.190360 0
0.021666 0.179267 0
0.042259 0.168828 0
0.062972 0.159025 0
0.083552 0.149800 0
0.103809 0.141074 0
0.123594 0.132757 0
0.142786 0.124754 0
0.161283 0.116967 0
0.178994 0.109303 0
0.195831 0.101667 0
0.211708 0.093966 0
0.226536 0.086107 0
0.240220 0.078000 0
0.252657 0.069550 0
0.000000 0.000000 0
-0.015742 0.123539 0
-0.041308 0.200127 0
-0.062509 0.238167 0
-0.073833 0.250547 0
-0.074844 0.247985 0
-0.067221 0.237681 0
-0.053083 0.223960 0
-0.034394 0.209216 0
-0.012668 0.194683 0
0.010869 0.180954 0
0.035345 0.168289 0
0.060125 0.156742 0
0.084812 0.146228 0
0.109131 0.136626 0
0.132890 0.127804 0
0.155954 0.119631 0
0.178226 0.111983 0
0.199627 0.104743 0
0.220093 0.097802 0
0.239567 0.091061 0
0.257989 0.084422 0
0.275297 0.077797 0
0.291422 0.071098 0
0.306288 0.064242 0
0.319807 0.057145 0
0.000000 0.000000 0
-0.023132 0.147080 0
-0.053925 0.225151 0
-0.073455 0.253674 0
-0.077751 0.254032 0
-0.069007 0.240914 0
-0.050949 0.222643 0
-0.026804 0.203434 0
0.000881 0.185170 0
0.030331 0.168610 0
0.060373 0.153970 0
0.090261 0.141104 0
0.119565 0.129800 0
0.148022 0.119822 0
0.175481 0.110946 0
0.201853 0.102976 0
0.227093 0.095739 0
0.251174 0.089085 0
0.274081 0.082886 0
0.295801 0.077027 0
0.316317 0.071408 0
0.335606 0.065937 0
0.353636 0.060533 0
0.370365 0.055116 0
0.385738 0.049615 0
0.399687 0.043959 0
0.000000 0.000000 0
-0.034103 0.177464 0
-0.066354 0.250450 0
-0.075874 0.261993 0
-0.064604 0.246098 0
-0.039338 0.221183 0
-0.006238 0.195478 0
0.030445 0.172129 0
0.068172 0.152081 0
0.105429 0.135191 0
0.141484 0.121023 0
0.175970 0.109097 0
0.208744 0.098981 0
0.239780 0.090312 0
0.269111 0.082795 0
0.296799 0.076192 0
0.322914 0.070310 0
0.347521 0.064994 0
0.370679 0.060116 0
0.392433 0.055567 0
0.412814 0.051256 0
0.431839 0.047103 0
0.449509 0.043037 0
0.465809 0.038996 0
0.480708 0.034920 0
0.494161 0.030755 0
0.000000 0.000000 0
-0.047113 0.213434 0
-0.066389 0.266922 0
-0.048886 0.251924 0
-0.009545 0.217496 0
0.038997 0.182548 0
0.089641 0.152860 0
0.138792 0.129024 0
0.185026 0.110186 0
0.227904 0.095298 0
0.267449 0.083428 0
0.303874 0.073844 0
0.337458 0.065991 0
0.368484 0.059455 0
0.397212 0.053927 0
0.423867 0.049173 0
0.448641 0.045017 0
0.471692 0.041320 0
0.493148 0.037974 0
0.513107 0.034892 0
0.531643 0.032002 0
0.548807 0.029243 0
0.564628 0.026563 0
0.579116 0.023916 0
0.592262 0.021262 0
0.604040 0.018563 0
0.000000 0.000000 0
-0.041958 0.243854 0
-0.008808 0.252222 0
0.059890 0.205149 0
0.135601 0.158215 0
0.206599 0.121997 0
0.269656 0.095684 0
0.324706 0.076745 0
0.372660 0.062969 0
0.414626 0.052768 0
0.451627 0.045054 0
0.484515 0.039088 0
0.513983 0.034370 0
0.540576 0.030559 0
0.564727 0.027413 0
0.586774 0.024762 0
0.606982 0.022484 0
0.625560 0.020487 0
0.642668 0.018701 0
0.658430 0.017071 0
0.672936 0.015556 0
0.686253 0.014118 0
0.698423 0.012729 0
0.709468 0.011362 0
0.719394 0.009996 0
0.728188 0.008610 0
0.000000 0.000000 0
0.107222 0.222241 0
0.243854 0.165074 0
0.359445 0.107516 0
0.449003 0.070787 0
0.517660 0.048493 0
0.570999 0.034754 0
0.613344 0.026021 0
0.647744 0.020266 0
0.676313 0.016331 0
0.700513 0.013539 0
0.721366 0.011488 0
0.739600 0.009930 0
0.755737 0.008711 0
0.770159 0.007729 0
0.783150 0.006918 0
0.794921 0.006230 0
0.805634 0.005634 0
0.815408 0.005105 0
0.824335 0.004624 0
0.832480 0.004178 0
0.839890 0.003756 0
0.846598 0.003347 0
0.852619 0.002945 0
0.857960 0.002543 0
0.862615 0.002133 0
1.000000 0.000000 0
1.000000 0.000000 0
1.000000 0.000000 0
1.000000 0.000000 0
1.000000 0.000000 0
1.000000 0.000000 0
1.000000 0.000000 0
1.000000 0.000000 0
1.000000 0.000000 0
1.000000 0.000000 0
1.000000 0.000000 0
1.000000 0.000000 0
1.000000 0.000000 0
1.000000 0.000000 0
1.000000 0.000000 0
1.000000 0.000000 0
1.000000 0.000000 0
1.000000 0.000000 0
1.000000 0.000000 0
1.000000 0.000000 0
1.000000 0.000000 0
1.000000 0.000000 0
1.000000 0.000000 0
1.000000 0.000000 0
1.000000 0.000000 0
1.000000 0.000000 0

CELL_DATA 625 
SCALARS pressure float 1 
LOOKUP_TABLE default 
-0.006880
-0.007852
-0.008687
-0.009414
-0.010069
-0.010683
-0.011287
-0.011906
-0.012561
-0.013267
-0.014035
-0.014872
-0.015778
-0.016752
-0.017788
-0.018875
-0.020000
-0.021146
-0.022293
-0.023415
-0.024485
-0.025472
-0.026342
-0.027060
-0.027587
-0.009462
-0.010416
-0.011240
-0.011964
-0.012619
-0.013239
-0.013854
-0.014490
-0.015170
-0.015911
-0.016723
-0.017615
-0.018589
-0.019645
-0.020775
-0.021972
-0.023220
-0.024504
-0.025801
-0.027086
-0.028330
-0.029499
-0.030557
-0.031464
-0.032177
-0.012200
-0.013137
-0.013949
-0.014666
-0.015318
-0.015938
-0.016556
-0.017202
-0.017898
-0.018662
-0.019508
-0.020445
-0.021478
-0.022606
-0.023824
-0.025124
-0.026493
-0.027912
-0.029360
-0.030810
-0.032232
-0.033590
-0.034844
-0.035952
-0.036866
-0.015086
-0.016005
-0.016807
-0.017515
-0.018159
-0.018772
-0.019385
-0.020027
-0.020725
-0.021498
-0.022364
-0.023332
-0.024410
-0.025598
-0.026893
-0.028287
-0.029768
-0.031317
-0.032912
-0.034526
-0.036126
-0.037676
-0.039132
-0.040448
-0.041574
-0.018108
-0.019016
-0.019809
-0.020506
-0.021137
-0.021733
-0.022327
-0.022951
-0.023633
-0.024397
-0.025263
-0.026244
-0.027348
-0.028580
-0.029936
-0.031411
-0.032991
-0.034660
-0.036395
-0.038167
-0.039943
-0.041682
-0.043341
-0.044870
-0.046212
-0.021260
-0.022164
-0.022951
-0.023637
-0.024247
-0.024814
-0.025372
-0.025957
-0.026601
-0.027332
-0.028173
-0.029142
-0.030250
-0.031504
-0.032903
-0.034440
-0.036106
-0.037881
-0.039744
-0.041664
-0.043607
-0.045532
-0.047390
-0.049129
-0.050690
-0.024535
-0.025448
-0.026236
-0.026909
-0.027490
-0.028012
-0.028512
-0.029031
-0.029607
-0.030274
-0.031060
-0.031988
-0.033073
-0.034323
-0.035740
-0.037320
-0.039051
-0.040916
-0.042891
-0.044947
-0.047046
-0.049145
-0.051195
-0.053138
-0.054913
-0.027932
-0.028872
-0.029670
-0.030328
-0.030868
-0.031323
-0.031737
-0.032157
-0.032629
-0.033194
-0.033889
-0.034741
-0.035769
-0.036985
-0.038394
-0.039991
-0.041766
-0.043701
-0.045771
-0.047946
-0.050187
-0.052448
-0.054676
-0.056813
-0.058792
-0.031456
-0.032447
-0.033267
-0.033909
-0.034391
-0.034752
-0.035042
-0.035320
-0.035643
-0.036062
-0.036621
-0.037356
-0.038290
-0.039439
-0.040809
-0.042396
-0.044191
-0.046174
-0.048320
-0.050596
-0.052961
-0.055368
-0.057760
-0.060076
-0.062244
-0.035121