# vtk DataFile Version 2.0
generated by CFD-lab course output (written by Tobias Neckel) 
ASCII

DATASET STRUCTURED_GRID
DIMENSIONS  151 101 1 
POINTS 15251 float

0.000000 6.666667 0
0.033333 6.666667 0
0.066667 6.666667 0
0.100000 6.666667 0
0.133333 6.666667 0
0.166667 6.666667 0
0.200000 6.666667 0
0.233333 6.666667 0
0.266667 6.666667 0
0.300000 6.666667 0
0.333333 6.666667 0
0.366667 6.666667 0
0.400000 6.666667 0
0.433333 6.666667 0
0.466667 6.666667 0
0.500000 6.666667 0
0.533333 6.666667 0
0.566667 6.666667 0
0.600000 6.666667 0
0.633333 6.666667 0
0.666667 6.666667 0
0.700000 6.666667 0
0.733333 6.666667 0
0.766667 6.666667 0
0.800000 6.666667 0
0.833333 6.666667 0
0.866667 6.666667 0
0.900000 6.666667 0
0.933333 6.666667 0
0.966667 6.666667 0
1.000000 6.666667 0
1.033333 6.666667 0
1.066667 6.666667 0
1.100000 6.666667 0
1.133333 6.666667 0
1.166667 6.666667 0
1.200000 6.666667 0
1.233333 6.666667 0
1.266667 6.666667 0
1.300000 6.666667 0
1.333333 6.666667 0
1.366667 6.666667 0
1.400000 6.666667 0
1.433333 6.666667 0
1.466667 6.666667 0
1.500000 6.666667 0
1.533333 6.666667 0
1.566667 6.666667 0
1.600000 6.666667 0
1.633333 6.666667 0
1.666667 6.666667 0
1.700000 6.666667 0
1.733333 6.666667 0
1.766667 6.666667 0
1.800000 6.666667 0
1.833333 6.666667 0
1.866667 6.666667 0
1.900000 6.666667 0
1.933333 6.666667 0
1.966667 6.666667 0
2.000000 6.666667 0
2.033333 6.666667 0
2.066667 6.666667 0
2.100000 6.666667 0
2.133333 6.666667 0
2.166667 6.666667 0
2.200000 6.666667 0
2.233333 6.666667 0
2.266667 6.666667 0
2.300000 6.666667 0
2.333333 6.666667 0
2.366667 6.666667 0
2.400000 6.666667 0
2.433333 6.666667 0
2.466667 6.666667 0
2.500000 6.666667 0
2.533333 6.666667 0
2.566667 6.666667 0
2.600000 6.666667 0
2.633333 6.666667 0
2.666667 6.666667 0
2.700000 6.666667 0
2.733333 6.666667 0
2.766667 6.666667 0
2.800000 6.666667 0
2.833333 6.666667 0
2.866667 6.666667 0
2.900000 6.666667 0
2.933333 6.666667 0
2.966667 6.666667 0
3.000000 6.666667 0
3.033333 6.666667 0
3.066667 6.666667 0
3.100000 6.666667 0
3.133333 6.666667 0
3.166667 6.666667 0
3.200000 6.666667 0
3.233333 6.666667 0
3.266667 6.666667 0
3.300000 6.666667 0
3.333333 6.666667 0
3.366667 6.666667 0
3.400000 6.666667 0
3.433333 6.666667 0
3.466667 6.666667 0
3.500000 6.666667 0
3.533333 6.666667 0
3.566667 6.666667 0
3.600000 6.666667 0
3.633333 6.666667 0
3.666667 6.666667 0
3.700000 6.666667 0
3.733333 6.666667 0
3.766667 6.666667 0
3.800000 6.666667 0
3.833333 6.666667 0
3.866667 6.666667 0
3.900000 6.666667 0
3.933333 6.666667 0
3.966667 6.666667 0
4.000000 6.666667 0
4.033333 6.666667 0
4.066667 6.666667 0
4.100000 6.666667 0
4.133333 6.666667 0
4.166667 6.666667 0
4.200000 6.666667 0
4.233333 6.666667 0
4.266667 6.666667 0
4.300000 6.666667 0
4.333333 6.666667 0
4.366667 6.666667 0
4.400000 6.666667 0
4.433333 6.666667 0
4.466667 6.666667 0
4.500000 6.666667 0
4.533333 6.666667 0
4.566667 6.666667 0
4.600000 6.666667 0
4.633333 6.666667 0
4.666667 6.666667 0
4.700000 6.666667 0
4.733333 6.666667 0
4.766667 6.666667 0
4.800000 6.666667 0
4.833333 6.666667 0
4.866667 6.666667 0
4.900000 6.666667 0
4.933333 6.666667 0
4.966667 6.666667 0
5.000000 6.666667 0
0.000000 6.700000 0
0.033333 6.700000 0
0.066667 6.700000 0
0.100000 6.700000 0
0.133333 6.700000 0
0.166667 6.700000 0
0.200000 6.700000 0
0.233333 6.700000 0
0.266667 6.700000 0
0.300000 6.700000 0
0.333333 6.700000 0
0.366667 6.700000 0
0.400000 6.700000 0
0.433333 6.700000 0
0.466667 6.700000 0
0.500000 6.700000 0
0.533333 6.700000 0
0.566667 6.700000 0
0.600000 6.700000 0
0.633333 6.700000 0
0.666667 6.700000 0
0.700000 6.700000 0
0.733333 6.700000 0
0.766667 6.700000 0
0.800000 6.700000 0
0.833333 6.700000 0
0.866667 6.700000 0
0.900000 6.700000 0
0.933333 6.700000 0
0.966667 6.700000 0
1.000000 6.700000 0
1.033333 6.700000 0
1.066667 6.700000 0
1.100000 6.700000 0
1.133333 6.700000 0
1.166667 6.700000 0
1.200000 6.700000 0
1.233333 6.700000 0
1.266667 6.700000 0
1.300000 6.700000 0
1.333333 6.700000 0
1.366667 6.700000 0
1.400000 6.700000 0
1.433333 6.700000 0
1.466667 6.700000 0
1.500000 6.700000 0
1.533333 6.700000 0
1.566667 6.700000 0
1.600000 6.700000 0
1.633333 6.700000 0
1.666667 6.700000 0
1.700000 6.700000 0
1.733333 6.700000 0
1.766667 6.700000 0
1.800000 6.700000 0
1.833333 6.700000 0
1.866667 6.700000 0
1.900000 6.700000 0
1.933333 6.700000 0
1.966667 6.700000 0
2.000000 6.700000 0
2.033333 6.700000 0
2.066667 6.700000 0
2.100000 6.700000 0
2.133333 6.700000 0
2.166667 6.700000 0
2.200000 6.700000 0
2.233333 6.700000 0
2.266667 6.700000 0
2.300000 6.700000 0
2.333333 6.700000 0
2.366667 6.700000 0
2.400000 6.700000 0
2.433333 6.700000 0
2.466667 6.700000 0
2.500000 6.700000 0
2.533333 6.700000 0
2.566667 6.700000 0
2.600000 6.700000 0
2.633333 6.700000 0
2.666667 6.700000 0
2.700000 6.700000 0
2.733333 6.700000 0
2.766667 6.700000 0
2.800000 6.700000 0
2.833333 6.700000 0
2.866667 6.700000 0
2.900000 6.700000 0
2.933333 6.700000 0
2.966667 6.700000 0
3.000000 6.700000 0
3.033333 6.700000 0
3.066667 6.700000 0
3.100000 6.700000 0
3.133333 6.700000 0
3.166667 6.700000 0
3.200000 6.700000 0
3.233333 6.700000 0
3.266667 6.700000 0
3.300000 6.700000 0
3.333333 6.700000 0
3.366667 6.700000 0
3.400000 6.700000 0
3.433333 6.700000 0
3.466667 6.700000 0
3.500000 6.700000 0
3.533333 6.700000 0
3.566667 6.700000 0
3.600000 6.700000 0
3.633333 6.700000 0
3.666667 6.700000 0
3.700000 6.700000 0
3.733333 6.700000 0
3.766667 6.700000 0
3.800000 6.700000 0
3.833333 6.700000 0
3.866667 6.700000 0
3.900000 6.700000 0
3.933333 6.700000 0
3.966667 6.700000 0
4.000000 6.700000 0
4.033333 6.700000 0
4.066667 6.700000 0
4.100000 6.700000 0
4.133333 6.700000 0
4.166667 6.700000 0
4.200000 6.700000 0
4.233333 6.700000 0
4.266667 6.700000 0
4.300000 6.700000 0
4.333333 6.700000 0
4.366667 6.700000 0
4.400000 6.700000 0
4.433333 6.700000 0
4.466667 6.700000 0
4.500000 6.700000 0
4.533333 6.700000 0
4.566667 6.700000 0
4.600000 6.700000 0
4.633333 6.700000 0
4.666667 6.700000 0
4.700000 6.700000 0
4.733333 6.700000 0
4.766667 6.700000 0
4.800000 6.700000 0
4.833333 6.700000 0
4.866667 6.700000 0
4.900000 6.700000 0
4.933333 6.700000 0
4.966667 6.700000 0
5.000000 6.700000 0
0.000000 6.733333 0
0.033333 6.733333 0
0.066667 6.733333 0
0.100000 6.733333 0
0.133333 6.733333 0
0.166667 6.733333 0
0.200000 6.733333 0
0.233333 6.733333 0
0.266667 6.733333 0
0.300000 6.733333 0
0.333333 6.733333 0
0.366667 6.733333 0
0.400000 6.733333 0
0.433333 6.733333 0
0.466667 6.733333 0
0.500000 6.733333 0
0.533333 6.733333 0
0.566667 6.733333 0
0.600000 6.733333 0
0.633333 6.733333 0
0.666667 6.733333 0
0.700000 6.733333 0
0.733333 6.733333 0
0.766667 6.733333 0
0.800000 6.733333 0
0.833333 6.733333 0
0.866667 6.733333 0
0.900000 6.733333 0
0.933333 6.733333 0
0.966667 6.733333 0
1.000000 6.733333 0
1.033333 6.733333 0
1.066667 6.733333 0
1.100000 6.733333 0
1.133333 6.733333 0
1.166667 6.733333 0
1.200000 6.733333 0
1.233333 6.733333 0
1.266667 6.733333 0
1.300000 6.733333 0
1.333333 6.733333 0
1.366667 6.733333 0
1.400000 6.733333 0
1.433333 6.733333 0
1.466667 6.733333 0
1.500000 6.733333 0
1.533333 6.733333 0
1.566667 6.733333 0
1.600000 6.733333 0
1.633333 6.733333 0
1.666667 6.733333 0
1.700000 6.733333 0
1.733333 6.733333 0
1.766667 6.733333 0
1.800000 6.733333 0
1.833333 6.733333 0
1.866667 6.733333 0
1.900000 6.733333 0
1.933333 6.733333 0
1.966667 6.733333 0
2.000000 6.733333 0
2.033333 6.733333 0
2.066667 6.733333 0
2.100000 6.733333 0
2.133333 6.733333 0
2.166667 6.733333 0
2.200000 6.733333 0
2.233333 6.733333 0
2.266667 6.733333 0
2.300000 6.733333 0
2.333333 6.733333 0
2.366667 6.733333 0
2.400000 6.733333 0
2.433333 6.733333 0
2.466667 6.733333 0
2.500000 6.733333 0
2.533333 6.733333 0
2.566667 6.733333 0
2.600000 6.733333 0
2.633333 6.733333 0
2.666667 6.733333 0
2.700000 6.733333 0
2.733333 6.733333 0
2.766667 6.733333 0
2.800000 6.733333 0
2.833333 6.733333 0
2.866667 6.733333 0
2.900000 6.733333 0
2.933333 6.733333 0
2.966667 6.733333 0
3.000000 6.733333 0
3.033333 6.733333 0
3.066667 6.733333 0
3.100000 6.733333 0
3.133333 6.733333 0
3.166667 6.733333 0
3.200000 6.733333 0
3.233333 6.733333 0
3.266667 6.733333 0
3.300000 6.733333 0
3.333333 6.733333 0
3.366667 6.733333 0
3.400000 6.733333 0
3.433333 6.733333 0
3.466667 6.733333 0
3.500000 6.733333 0
3.533333 6.733333 0
3.566667 6.733333 0
3.600000 6.733333 0
3.633333 6.733333 0
3.666667 6.733333 0
3.700000 6.733333 0
3.733333 6.733333 0
3.766667 6.733333 0
3.800000 6.733333 0
3.833333 6.733333 0
3.866667 6.733333 0
3.900000 6.733333 0
3.933333 6.733333 0
3.966667 6.733333 0
4.000000 6.733333 0
4.033333 6.733333 0
4.066667 6.733333 0
4.100000 6.733333 0
4.133333 6.733333 0
4.166667 6.733333 0
4.200000 6.733333 0
4.233333 6.733333 0
4.266667 6.733333 0
4.300000 6.733333 0
4.333333 6.733333 0
4.366667 6.733333 0
4.400000 6.733333 0
4.433333 6.733333 0
4.466667 6.733333 0
4.500000 6.733333 0
4.533333 6.733333 0
4.566667 6.733333 0
4.600000 6.733333 0
4.633333 6.733333 0
4.666667 6.733333 0
4.700000 6.733333 0
4.733333 6.733333 0
4.766667 6.733333 0
4.800000 6.733333 0
4.833333 6.733333 0
4.866667 6.733333 0
4.900000 6.733333 0
4.933333 6.733333 0
4.966667 6.733333 0
5.000000 6.733333 0
0.000000 6.766667 0
0.033333 6.766667 0
0.066667 6.766667 0
0.100000 6.766667 0
0.133333 6.766667 0
0.166667 6.766667 0
0.200000 6.766667 0
0.233333 6.766667 0
0.266667 6.766667 0
0.300000 6.766667 0
0.333333 6.766667 0
0.366667 6.766667 0
0.400000 6.766667 0
0.433333 6.766667 0
0.466667 6.766667 0
0.500000 6.766667 0
0.533333 6.766667 0
0.566667 6.766667 0
0.600000 6.766667 0
0.633333 6.766667 0
0.666667 6.766667 0
0.700000 6.766667 0
0.733333 6.766667 0
0.766667 6.766667 0
0.800000 6.766667 0
0.833333 6.766667 0
0.866667 6.766667 0
0.900000 6.766667 0
0.933333 6.766667 0
0.966667 6.766667 0
1.000000 6.766667 0
1.033333 6.766667 0
1.066667 6.766667 0
1.100000 6.766667 0
1.133333 6.766667 0
1.166667 6.766667 0
1.200000 6.766667 0
1.233333 6.766667 0
[...]
POINT_DATA 15251 

VECTORS velocity float
0.000000 0.000000 0
-0.000045 0.005669 0
-0.000170 0.010981 0
-0.000370 0.015935 0
-0.000639 0.020535 0
-0.000974 0.024788 0
-0.001367 0.028702 0
-0.001815 0.032288 0
-0.002313 0.035557 0
-0.002855 0.038521 0
-0.003436 0.041196 0
-0.004054 0.043594 0
-0.004702 0.045732 0
-0.005378 0.047626 0
-0.006078 0.049290 0
-0.006798 0.050741 0
-0.007535 0.051995 0
-0.008286 0.053067 0
-0.009049 0.053972 0
-0.009820 0.054726 0
-0.010598 0.055340 0
-0.011381 0.055830 0
-0.012166 0.056207 0
-0.012951 0.056482 0
-0.013737 0.056667 0
-0.014520 0.056771 0
-0.015299 0.056804 0
-0.016075 0.056772 0
-0.016844 0.056685 0
-0.017608 0.056547 0
-0.018365 0.056365 0
-0.019114 0.056145 0
-0.019854 0.055891 0
-0.020586 0.055606 0
-0.021309 0.055295 0
-0.022022 0.054960 0
-0.022725 0.054605 0
-0.023418 0.054230 0
-0.024100 0.053840 0
-0.024771 0.053434 0
-0.025431 0.053015 0
-0.026080 0.052584 0
-0.026718 0.052143 0
-0.027345 0.051691 0
-0.027960 0.051230 0
-0.028563 0.050762 0
-0.029155 0.050285 0
-0.029735 0.049802 0
-0.030304 0.049312 0
-0.030861 0.048817 0
-0.031406 0.048316 0
-0.031940 0.047810 0
-0.032462 0.047300 0
-0.032973 0.046786 0
-0.033472 0.046268 0
-0.033960 0.045746 0
-0.034436 0.045222 0
-0.034902 0.044694 0
-0.035356 0.044164 0
-0.035800 0.043632 0
-0.036232 0.043099 0
-0.036654 0.042563 0
-0.037066 0.042026 0
-0.037466 0.041488 0
-0.037857 0.040950 0
-0.038237 0.040410 0
-0.038607 0.039871 0
-0.038968 0.039330 0
-0.039319 0.038790 0
-0.039660 0.038251 0
-0.039992 0.037711 0
-0.040314 0.037172 0
-0.040628 0.036634 0
-0.040933 0.036097 0
-0.041228 0.035561 0
-0.041516 0.035026 0
-0.041795 0.034492 0
-0.042066 0.033960 0
-0.042329 0.033429 0
-0.042584 0.032900 0
-0.042831 0.032372 0
-0.043071 0.031847 0
-0.043304 0.031323 0
-0.043529 0.030802 0
-0.043748 0.030282 0
-0.043959 0.029765 0
-0.044164 0.029250 0
-0.044362 0.028738 0
-0.044555 0.028227 0
-0.044741 0.027719 0
-0.044921 0.027214 0
-0.045095 0.026711 0
-0.045264 0.026210 0
-0.045427 0.025712 0
-0.045584 0.025217 0
-0.045737 0.024724 0
-0.045884 0.024234 0
-0.046026 0.023747 0
-0.046164 0.023262 0
-0.046296 0.022779 0
-0.046425 0.022300 0
-0.046549 0.021822 0
-0.046668 0.021348 0
-0.046784 0.020876 0
-0.046896 0.020406 0
-0.047003 0.019939 0
-0.047107 0.019475 0
-0.047207 0.019013 0
-0.047304 0.018553 0
-0.047397 0.018096 0
-0.047487 0.017642 0
-0.047574 0.017189 0
-0.047657 0.016739 0
-0.047738 0.016292 0
-0.047815 0.015846 0
-0.047890 0.015403 0
-0.047962 0.014962 0
-0.048031 0.014523 0
-0.048098 0.014086 0
-0.048162 0.013651 0
-0.048224 0.013218 0
-0.048283 0.012787 0
-0.048341 0.012358 0
-0.048396 0.011930 0
-0.048448 0.011504 0
-0.048499 0.011080 0
-0.048548 0.010658 0
-0.048595 0.010237 0
-0.048640 0.009818 0
-0.048683 0.009400 0
-0.048725 0.008983 0
-0.048764 0.008568 0
-0.048802 0.008154 0
-0.048839 0.007741 0
-0.048874 0.007329 0
-0.048907 0.006919 0
-0.048939 0.006509 0
-0.048969 0.006100 0
-0.048998 0.005692 0
-0.049026 0.005285 0
-0.049052 0.004878 0
-0.049077 0.004473 0
-0.049101 0.004067 0
-0.049123 0.003662 0
-0.049144 0.003258 0
-0.049164 0.002854 0
-0.049183 0.002450 0
-0.049200 0.002047 0
-0.049216 0.001643 0
-0.049231 0.001240 0
-0.049245 0.000836 0
0.000000 0.000000 0
-0.000046 0.005752 0
-0.000173 0.011142 0
-0.000377 0.016170 0
-0.000652 0.020838 0
-0.000993 0.025154 0
-0.001395 0.029126 0
-0.001852 0.032763 0
-0.002359 0.036079 0
-0.002912 0.039087 0
-0.003506 0.041799 0
-0.004135 0.044231 0
-0.004797 0.046399 0
-0.005486 0.048318 0
-0.006199 0.050005 0
-0.006933 0.051475 0
-0.007685 0.052744 0
-0.008450 0.053829 0
-0.009227 0.054745 0
-0.010013 0.055506 0
-0.010805 0.056126 0
-0.011602 0.056619 0
-0.012402 0.056997 0
-0.013202 0.057273 0
-0.014001 0.057456 0
-0.014797 0.057558 0
-0.015591 0.057586 0
-0.016379 0.057550 0
-0.017162 0.057456 0
-0.017938 0.057312 0
-0.018707 0.057123 0
-0.019468 0.056894 0
-0.020221 0.056631 0
-0.020964 0.056337 0
-0.021697 0.056016 0
-0.022421 0.055671 0
-0.023134 0.055305 0
-0.023837 0.054921 0
-0.024528 0.054519 0
-0.025208 0.054102 0
-0.025877 0.053672 0
-0.026534 0.053230 0
-0.027180 0.052777 0
-0.027814 0.052314 0
-0.028436 0.051842 0
-0.029046 0.051361 0
-0.029644 0.050873 0
-0.030230 0.050378 0
-0.030804 0.049876 0
-0.031366 0.049369 0
-0.031916 0.048856 0
-0.032454 0.048339 0
-0.032981 0.047817 0
-0.033495 0.047291 0
-0.033998 0.046761 0
-0.034489 0.046229 0
-0.034968 0.045693 0
-0.035436 0.045154 0
-0.035893 0.044613 0
-0.036338 0.044070 0
-0.036773 0.043525 0
-0.037196 0.042979 0
-0.037608 0.042432 0
-0.038010 0.041883 0
-0.038401 0.041334 0
-0.038782 0.040785 0
-0.039152 0.040235 0
-0.039513 0.039685 0
-0.039864 0.039135 0
-0.040204 0.038585 0
-0.040536 0.038037 0
-0.040857 0.037489 0
-0.041170 0.036942 0
-0.041474 0.036396 0
-0.041768 0.035851 0
-0.042054 0.035307 0
-0.042332 0.034765 0
-0.042601 0.034225 0
-0.042863 0.033686 0
-0.043116 0.033149 0
-0.043362 0.032614 0
-0.043600 0.032081 0
-0.043830 0.031550 0
-0.044053 0.031021 0
-0.044269 0.030495 0
-0.044478 0.029972 0
-0.044681 0.029450 0
-0.044877 0.028931 0
-0.045067 0.028414 0
-0.045251 0.027900 0
-0.045428 0.027389 0
-0.045600 0.026880 0
-0.045766 0.026374 0
-0.045926 0.025870 0
-0.046081 0.025370 0
-0.046231 0.024872 0
-0.046375 0.024377 0
-0.046515 0.023885 0
-0.046650 0.023395 0
-0.046780 0.022908 0
-0.046905 0.022424 0
-0.047027 0.021942 0
-0.047144 0.021463 0
-0.047257 0.020987 0
-0.047366 0.020514 0
-0.047471 0.020043 0
-0.047572 0.019575 0
-0.047670 0.019109 0
-0.047764 0.018647 0
-0.047855 0.018186 0
-0.047942 0.017728 0
-0.048026 0.017273 0
-0.048107 0.016820 0
-0.048186 0.016369 0
-0.048261 0.015921 0
-0.048333 0.015475 0
-0.048403 0.015031 0
-0.048470 0.014589 0
-0.048535 0.014150 0
-0.048597 0.013713 0
-0.048657 0.013277 0
-0.048715 0.012844 0
-0.048770 0.012413 0
-0.048823 0.011983 0
-0.048874 0.011555 0
-0.048923 0.011129 0
-0.048971 0.010705 0
-0.049016 0.010282 0
-0.049060 0.009861 0
-0.049101 0.009441 0
-0.049141 0.009023 0
-0.049180 0.008606 0
-0.049217 0.008190 0
-0.049252 0.007776 0
-0.049286 0.007363 0
-0.049318 0.006951 0
-0.049349 0.006539 0
-0.049378 0.006129 0
-0.049407 0.005720 0
-0.049434 0.005311 0
-0.049459 0.004904 0
-0.049483 0.004496 0
-0.049506 0.004090 0
-0.049528 0.003684 0
-0.049549 0.003278 0
-0.049569 0.002873 0
-0.049587 0.002468 0
-0.049604 0.002063 0
-0.049620 0.001659 0
-0.049635 0.001254 0
-0.049649 0.000850 0
0.000000 0.000000 0
-0.000047 0.005838 0
-0.000177 0.011309 0
-0.000385 0.016412 0
-0.000666 0.021149 0
-0.001014 0.025529 0
-0.001424 0.029559 0
-0.001890 0.033250 0
-0.002408 0.036614 0
-0.002972 0.039665 0
-0.003577 0.042416 0
-0.004219 0.044883 0
-0.004894 0.047081 0
-0.005597 0.049026 0
-0.006324 0.050735 0
-0.007073 0.052224 0
-0.007838 0.053510 0
-0.008619 0.054607 0
-0.009411 0.055533 0
-0.010212 0.056302 0
-0.011019 0.056927 0
-0.011831 0.057424 0
-0.012645 0.057804 0
-0.013459 0.058079 0
-0.014273 0.058261 0
-0.015083 0.058359 0
-0.015891 0.058383 0
-0.016693 0.058342 0
-0.017489 0.058242 0
-0.018278 0.058090 0
-0.019060 0.057893 0
-0.019833 0.057656 0
-0.020597 0.057384 0
-0.021352 0.057081 0
-0.022097 0.056750 0
-0.022831 0.056395 0
-0.023554 0.056018 0
-0.024267 0.055622 0
-0.024968 0.055209 0
-0.025657 0.054781 0
-0.026334 0.054339 0
-0.027000 0.053885 0
-0.027653 0.053420 0
-0.028295 0.052945 0
-0.028924 0.052460 0
-0.029540 0.051968 0
-0.030145 0.051467 0
-0.030737 0.050960 0
-0.031316 0.050446 0
-0.031884 0.049927 0
-0.032438 0.049402 0
-0.032981 0.048873 0
-0.033511 0.048339 0
-0.034029 0.047801 0
-0.034535 0.047260 0
-0.035029 0.046715 0
-0.035512 0.046167 0
-0.035982 0.045617 0
-0.036441 0.045065 0
-0.036888 0.044510 0
-0.037324 0.043954 0
-0.037748 0.043397 0
-0.038162 0.042839 0
-0.038564 0.042280 0
-0.038956 0.041720 0
-0.039337 0.041160 0
-0.039707 0.040600 0
-0.040068 0.040040 0
-0.040418 0.039480 0
-0.040758 0.038921 0
-0.041089 0.038363 0
-0.041410 0.037805 0
-0.041721 0.037249 0
-0.042023 0.036694 0
-0.042317 0.036140 0
-0.042602 0.035588 0
-0.042878 0.035037 0
-0.043145 0.034489 0
-0.043405 0.033942 0
-0.043656 0.033397 0
-0.043899 0.032854 0
-0.044135 0.032314 0
-0.044363 0.031776 0
-0.044584 0.031240 0
-0.044798 0.030707 0
-0.045004 0.030176 0
-0.045205 0.029648 0
-0.045398 0.029122 0
-0.045585 0.028599 0
-0.045766 0.028079 0
-0.045941 0.027562 0
-0.046110 0.027047 0
-0.046273 0.026535 0
-0.046431 0.026027 0
-0.046583 0.025521 0
-0.046730 0.025018 0
-0.046871 0.024518 0
-0.047008 0.024020 0
-0.047140 0.023526 0
-0.047268 0.023034 0
-0.047391 0.022546 0
-0.047509 0.022060 0
-0.047624 0.021577 0
-0.047734 0.021097 0
-0.047840 0.020619 0
-0.047942 0.020145 0
-0.048041 0.019673 0
-0.048136 0.019204 0
-0.048227 0.018738 0
-0.048315 0.018274 0
-0.048400 0.017813 0
-0.048482 0.017354 0
-0.048561 0.016898 0
-0.048637 0.016445 0
-0.048709 0.015993 0
-0.048780 0.015545 0
-0.048847 0.015098 0
-0.048912 0.014654 0
-0.048975 0.014212 0
-0.049035 0.013772 0
-0.049092 0.013335 0
-0.049148 0.012899 0
-0.049201 0.012466 0
-0.049253 0.012034 0
-0.049302 0.011604 0
-0.049350 0.011176 0
-0.049395 0.010750 0
-0.049439 0.010326 0
-0.049481 0.009903 0
-0.049521 0.009481 0
-0.049560 0.009061 0
-0.049597 0.008643 0
-0.049632 0.008226 0
-0.049666 0.007810 0
-0.049699 0.007395 0
-0.049730 0.006982 0
-0.049760 0.006569 0
-0.049789 0.006158 0
-0.049816 0.005747 0
-0.049842 0.005337 0
-0.049867 0.004928 0
-0.049891 0.004520 0
-0.049913 0.004112 0
-0.049935 0.003705 0
-0.049955 0.003298 0
-0.049974 0.002892 0
-0.049992 0.002486 0
-0.050009 0.002080 0
-0.050025 0.001674 0
-0.050040 0.001269 0
-0.050054 0.000863 0
0.000000 0.000000 0
-0.000048 0.005926 0
-0.000180 0.011479 0
-0.000393 0.016658 0
-0.000679 0.021467 0
-0.001035 0.025911 0
-0.001453 0.030001 0
-0.001929 0.033746 0
-0.002457 0.037160 0
-0.003033 0.040255 0
-0.003651 0.043045 0
-0.004306 0.045547 0
-0.004994 0.047776 0
-0.005711 0.049748 0
-0.006453 0.051480 0
-0.007216 0.052988 0
-0.007997 0.054290 0
-0.008793 0.055401 0
-0.009600 0.056336 0
-0.010416 0.057113 0
-0.011239 0.057744 0
-0.012066 0.058243 0
-0.012895 0.058625 0
-0.013725 0.058900 0
-0.014553 0.059080 0
-0.015378 0.059175 0
-0.016200 0.059194 0
-0.017016 0.059147 0
-0.017825 0.059041 0
-0.018628 0.058882 0
-0.019423 0.058677 0
-0.020208 0.058431 0
-0.020985 0.058149 0
-0.021751 0.057836 0
-0.022507 0.057494 0
-0.023252 0.057128 0
-0.023986 0.056740 0
-0.024709 0.056333 0
-0.025419 0.055909 0
-0.026118 0.055469 0
-0.026804 0.055015 0
-0.027478 0.054548 0
-0.028139 0.054071 0
-0.028788 0.053583 0
-0.029424 0.053086 0
-0.030048 0.052581 0
-0.030658 0.052068 0
-0.031256 0.051548 0
-0.031841 0.051022 0
-0.032413 0.050490 0
-0.032973 0.049953 0
-0.033520 0.049411 0
-0.034054 0.048865 0
-0.034576 0.048314 0
-0.035085 0.047761 0
-0.035582 0.047204 0
-0.036067 0.046644 0
-0.036539 0.046082 0
-0.037000 0.045518 0
-0.037449 0.044952 0
-0.037886 0.044385 0
-0.038312 0.043816 0
-0.038726 0.043247 0
-0.039129 0.042677 0
-0.039521 0.042106 0
-0.039902 0.041535 0
-0.040273 0.040965 0
-0.040633 0.040394 0
-0.040983 0.039825 0
-0.041322 0.039256 0
-0.041652 0.038688 0
-0.041971 0.038121 0
-0.042281 0.037555 0
-0.042582 0.036991 0
-0.042874 0.036428 0
-0.043157 0.035867 0
-0.043432 0.035308 0
-0.043697 0.034751 0
-0.043955 0.034195 0
-0.044204 0.033643 0
-0.044445 0.033092 0
-0.044678 0.032544 0
-0.044904 0.031999 0
-0.045122 0.031456 0
-0.045333 0.030916 0
-0.045537 0.030378 0
-0.045735 0.029843 0
-0.045926 0.029311 0
-0.046110 0.028781 0
-0.046288 0.028255 0
-0.046460 0.027732 0
-0.046626 0.027211 0
-0.046786 0.026694 0
-0.046941 0.026180 0
-0.047090 0.025669 0
-0.047234 0.025161 0
-0.047372 0.024655 0
-0.047506 0.024153 0
-0.047635 0.023654 0
-0.047760 0.023158 0
-0.047880 0.022665 0
-0.047996 0.022174 0
-0.048107 0.021687 0
-0.048214 0.021203 0
-0.048318 0.020722 0
-0.048417 0.020244 0
-0.048513 0.019768 0
-0.048605 0.019296 0
-0.048694 0.018826 0
-0.048779 0.018359 0
-0.048862 0.017895 0
-0.048941 0.017433 0
-0.049017 0.016974 0
-0.049090 0.016518 0
-0.049161 0.016064 0
-0.049229 0.015612 0
-0.049294 0.015163 0
-0.049356 0.014717 0
-0.049417 0.014272 0
-0.049474 0.013830 0
-0.049530 0.013390 0
-0.049584 0.012953 0
-0.049635 0.012517 0
-0.049685 0.012083 0
-0.049732 0.011652 0
-0.049778 0.011222 0
-0.049821 0.010794 0
-0.049863 0.010368 0
-0.049904 0.009943 0
-0.049942 0.009520 0
-0.049980 0.009099 0
-0.050015 0.008679 0
-0.050050 0.008260 0
-0.050082 0.007843 0
-0.050114 0.007427 0
-0.050144 0.007012 0
-0.050173 0.006598 0
-0.050201 0.006185 0
-0.050227 0.005773 0
-0.050252 0.005362 0
-0.050276 0.004952 0
-0.050299 0.004543 0
-0.050321 0.004134 0
-0.050342 0.003726 0
-0.050362 0.003318 0
-0.050381 0.002910 0
-0.050399 0.002503 0
-0.050416 0.002096 0
-0.050432 0.001690 0
-0.050446 0.001283 0
-0.050461 0.000877 0
0.000000 0.000000 0
-0.000049 0.006016 0
-0.000184 0.011653 0
-0.000401 0.016910 0
-0.000693 0.021790 0
-0.001056 0.026301 0
-0.001483 0.030452 0
-0.001970 0.034253 0
-0.002509 0.037717 0
-0.003096 0.040857 0
-0.003727 0.043688 0
-0.004395 0.046225 0
-0.005098 0.048485 0
-0.005829 0.050484 0
-0.006586 0.052239 0
-0.007365 0.053767 0
-0.008161 0.055085 0
-0.008973 0.056209 0
-0.009796 0.057155 0
-0.010628 0.057939 0
-0.011466 0.058576 0
-0.012309 0.059079 0
-0.013154 0.059461 0
-0.013998 0.059736 0
-0.014842 0.059914 0
-0.015682 0.060005 0
-0.016518 0.060020 0
-0.017348 0.059967 0
-0.018172 0.059853 0
-0.018988 0.059686 0
-0.019796 0.059473 0
-0.020595 0.059217 0
-0.021384 0.058926 0
-0.022162 0.058602 0
-0.022930 0.058250 0
-0.023686 0.057873 0
-0.024430 0.057473 0
-0.025163 0.057054 0
-0.025883 0.056617 0
-0.026591 0.056165 0
-0.027286 0.055699 0
-0.027968 0.055220 0
-0.028638 0.054729 0
-0.029294 0.054229 0
-0.029938 0.053719 0
-0.030568 0.053201 0
-0.031185 0.052675 0
-0.031788 0.052142 0
-0.032379 0.051603 0
-0.032956 0.051058 0
-0.033520 0.050508 0
-0.034071 0.049953 0
-0.034609 0.049394 0
-0.035134 0.048831 0
-0.035647 0.048265 0
-0.036147 0.047696 0
-0.036634 0.047124 0
-0.037109 0.046549 0
-0.037571 0.045973 0
-0.038022 0.045395 0
-0.038460 0.044816 0
-0.038886 0.044236 0
-0.039301 0.043655 0
-0.039705 0.043074 0
-0.040097 0.042492 0
-0.040478 0.041911 0
-0.040849 0.041329 0
-0.041208 0.040749 0
-0.041557 0.040169 0
-0.041896 0.039589 0
-0.042224 0.039012 0
-0.042542 0.038435 0
-0.042851 0.037860 0
-0.043151 0.037286 0
-0.043441 0.036714 0
-0.043722 0.036144 0
-0.043994 0.035576 0
-0.044258 0.035011 0
-0.044513 0.034447 0
-0.044759 0.033886 0
-0.044998 0.033328 0
-0.045229 0.032772 0
-0.045451 0.032219 0
-0.045667 0.031669 0
-0.045876 0.031122 0
-0.046077 0.030577 0
-0.046272 0.030035 0
-0.046460 0.029496 0
-0.046641 0.028961 0
-0.046816 0.028428 0
-0.046985 0.027899 0
-0.047148 0.027373 0
-0.047305 0.026850 0
-0.047456 0.026330 0
-0.047602 0.025814 0
-0.047743 0.025300 0
-0.047879 0.024790 0
-0.048009 0.024283 0
-0.048135 0.023779 0
-0.048257 0.023278 0
-0.048374 0.022781 0
-0.048487 0.022286 0
-0.048595 0.021795 0
-0.048699 0.021307 0
-0.048799 0.020822 0
-0.048896 0.020340 0
-0.048989 0.019861 0
-0.049078 0.019385 0
-0.049164 0.018912 0
-0.049247 0.018441 0
-0.049326 0.017974 0
-0.049403 0.017509 0
-0.049476 0.017047 0
-0.049547 0.016588 0
-0.049615 0.016131 0
-0.049680 0.015677 0
-0.049743 0.015226 0
-0.049803 0.014777 0
-0.049861 0.014330 0
-0.049916 0.013886 0
-0.049970 0.013444 0
-0.050021 0.013004 0
-0.050071 0.012566 0
-0.050118 0.012131 0
-0.050164 0.011697 0
-0.050207 0.011266 0
-0.050249 0.010836 0
-0.050290 0.010408 0
-0.050328 0.009982 0
-0.050365 0.009557 0
-0.050401 0.009134 0
-0.050435 0.008713 0
-0.050468 0.008293 0
-0.050500 0.007874 0
-0.050530 0.007457 0
-0.050559 0.007041 0
-0.050587 0.006626 0
-0.050613 0.006212 0
-0.050639 0.005799 0
-0.050663 0.005387 0
-0.050687 0.004975 0
-0.050709 0.004565 0
-0.050730 0.004155 0
-0.050751 0.003746 0
-0.050770 0.003337 0
-0.050789 0.002929 0
-0.050806 0.002520 0
-0.050823 0.002113 0
-0.050839 0.001705 0
-0.050854 0.001298 0
-0.050868 0.000890 0
0.000000 0.000000 0
-0.000050 0.006107 0
-0.000188 0.011830 0
-0.000409 0.017167 0
-0.000708 0.022121 0
-0.001079 0.026700 0
-0.001515 0.030913 0
-0.002011 0.034770 0
-0.002562 0.038285 0
-0.003162 0.041471 0
-0.003805 0.044343 0
-0.004488 0.046917 0
-0.005205 0.049209 0
-0.005951 0.051236 0
-0.006724 0.053014 0
-0.007518 0.054562 0
-0.008331 0.055897 0
-0.009158 0.057034 0
-0.009998 0.057990 0
-0.010846 0.058782 0
-0.011701 0.059424 0
-0.012559 0.059930 0
-0.013420 0.060313 0
-0.014281 0.060587 0
-0.015140 0.060763 0
-0.015995 0.060850 0
-0.016846 0.060860 0
-0.017691 0.060800 0
-0.018529 0.060680 0
-0.019359 0.060505 0
-0.020181 0.060282 0
-0.020992 0.060017 0
-0.021794 0.059715 0
-0.022585 0.059380 0
-0.023364 0.059017 0
-0.024131 0.058628 0
-0.024887 0.058217 0
-0.025630 0.057785 0
-0.026360 0.057336 0
-0.027077 0.056871 0
-0.027781 0.056391 0
-0.028472 0.055899 0
-0.029150 0.055396 0
-0.029814 0.054882 0
-0.030464 0.054359 0
-0.031101 0.053827 0
-0.031724 0.053288 0
-0.032333 0.052741 0
-0.032929 0.052189 0
-0.033511 0.051631 0
-0.034080 0.051067 0
-0.034635 0.050499 0
-0.035177 0.049927 0
-0.035706 0.049351 0
-0.036222 0.048772 0
-0.036724 0.048190 0
-0.037214 0.047605 0
-0.037690 0.047019 0
-0.038155 0.046430 0
-0.038606 0.045840 0
-0.039046 0.045249 0
-0.039473 0.044657 0
-0.039888 0.044064 0
-0.040292 0.043472 0
-0.040684 0.042879 0
-0.041065 0.042286 0
-0.041435 0.041694 0
-0.041794 0.041102 0
-0.042142 0.040512 0
-0.042479 0.039922 0
-0.042806 0.039334 0
-0.043123 0.038748 0
-0.043430 0.038163 0
-0.043728 0.037580 0
-0.044016 0.036999 0
-0.044296 0.036419 0
-0.044566 0.035843 0
-0.044827 0.035268 0
-0.045079 0.034697 0
-0.045323 0.034127 0
-0.045559 0.033561 0
-0.045787 0.032998 0
-0.046007 0.032437 0
-0.046220 0.031879 0
-0.046425 0.031325 0
-0.046624 0.030773 0
-0.046815 0.030224 0
-0.047000 0.029679 0
-0.047178 0.029137 0
-0.047350 0.028598 0
-0.047516 0.028063 0
-0.047675 0.027531 0
-0.047829 0.027002 0
-0.047977 0.026477 0
-0.048120 0.025955 0
-0.048257 0.025437 0
-0.048390 0.024921 0
-0.048517 0.024409 0
-0.048640 0.023901 0
-0.048758 0.023396 0
-0.048872 0.022894 0
-0.048981 0.022395 0
-0.049087 0.021899 0
-0.049188 0.021407 0
-0.049285 0.020919 0
-0.049378 0.020433 0
-0.049468 0.019950 0
-0.049554 0.019471 0
-0.049637 0.018994 0
-0.049717 0.018521 0
-0.049794 0.018050 0
-0.049867 0.017583 0
-0.049938 0.017118 0
-0.050006 0.016656 0
-0.050071 0.016196 0
-0.050134 0.015740 0
-0.050194 0.015286 0
-0.050252 0.014835 0
-0.050307 0.014386 0
-0.050361 0.013939 0
-0.050412 0.013495 0
-0.050461 0.013053 0
-0.050508 0.012614 0
-0.050554 0.012176 0
-0.050597 0.011741 0
-0.050639 0.011307 0
-0.050679 0.010876 0
-0.050717 0.010446 0
-0.050754 0.010019 0
-0.050790 0.009593 0
-0.050824 0.009168 0
-0.050857 0.008746 0
-0.050888 0.008324 0
-0.050918 0.007904 0
-0.050947 0.007486 0
-0.050975 0.007068 0
-0.051002 0.006652 0
-0.051027 0.006237 0
-0.051052 0.005823 0
-0.051076 0.005410 0
-0.051098 0.004998 0
-0.051120 0.004586 0
-0.051140 0.004175 0
-0.051160 0.003765 0
-0.051179 0.003356 0
-0.051197 0.002946 0
-0.051214 0.002537 0
-0.051231 0.002129 0
-0.051247 0.001720 0
-0.051261 0.001312 0
-0.051275 0.000904 0
0.000000 0.000000 0
-0.000051 0.006201 0
-0.000192 0.012011 0
-0.000418 0.017429 0
-0.000723 0.022459 0
-0.001102 0.027107 0
-0.001548 0.031383 0
-0.002055 0.035299 0
-0.002617 0.038866 0
-0.003229 0.042099 0
-0.003887 0.045013 0
-0.004583 0.047624 0
-0.005315 0.049948 0
-0.006077 0.052002 0
-0.006866 0.053805 0
-0.007676 0.055373 0
-0.008505 0.056724 0
-0.009350 0.057875 0
-0.010206 0.058842 0
-0.011071 0.059641 0
-0.011943 0.060288 0
-0.012818 0.060797 0
-0.013695 0.061182 0
-0.014572 0.061454 0
-0.015447 0.061627 0
-0.016318 0.061711 0
-0.017184 0.061715 0
-0.018045 0.061649 0
-0.018897 0.061520 0
-0.019742 0.061337 0
-0.020577 0.061105 0
-0.021402 0.060830 0
-0.022217 0.060517 0
-0.023020 0.060171 0
-0.023811 0.059796 0
-0.024590 0.059395 0
-0.025356 0.058971 0
-0.026110 0.058526 0
-0.026850 0.058064 0
-0.027577 0.057586 0
-0.028290 0.057093 0
-0.028989 0.056587 0
-0.029675 0.056070 0
-0.030347 0.055542 0