# vtk DataFile Version 2.0
generated by CFD-lab course output (written by Tobias Neckel) 
ASCII

DATASET STRUCTURED_GRID
DIMENSIONS  151 101 1 
POINTS 15251 float

5.000000 6.666667 0
5.033333 6.666667 0
5.066667 6.666667 0
5.100000 6.666667 0
5.133333 6.666667 0
5.166667 6.666667 0
5.200000 6.666667 0
5.233333 6.666667 0
5.266667 6.666667 0
5.300000 6.666667 0
5.333333 6.666667 0
5.366667 6.666667 0
5.400000 6.666667 0
5.433333 6.666667 0
5.466667 6.666667 0
5.500000 6.666667 0
5.533333 6.666667 0
5.566667 6.666667 0
5.600000 6.666667 0
5.633333 6.666667 0
5.666667 6.666667 0
5.700000 6.666667 0
5.733333 6.666667 0
5.766667 6.666667 0
5.800000 6.666667 0
5.833333 6.666667 0
5.866667 6.666667 0
5.900000 6.666667 0
5.933333 6.666667 0
5.966667 6.666667 0
6.000000 6.666667 0
6.033333 6.666667 0
6.066667 6.666667 0
6.100000 6.666667 0
6.133333 6.666667 0
6.166667 6.666667 0
6.200000 6.666667 0
6.233333 6.666667 0
6.266667 6.666667 0
6.300000 6.666667 0
6.333333 6.666667 0
6.366667 6.666667 0
6.400000 6.666667 0
6.433333 6.666667 0
6.466667 6.666667 0
6.500000 6.666667 0
6.533333 6.666667 0
6.566667 6.666667 0
6.600000 6.666667 0
6.633333 6.666667 0
6.666667 6.666667 0
6.700000 6.666667 0
6.733333 6.666667 0
6.766667 6.666667 0
6.800000 6.666667 0
6.833333 6.666667 0
6.866667 6.666667 0
6.900000 6.666667 0
6.933333 6.666667 0
6.966667 6.666667 0
7.000000 6.666667 0
7.033333 6.666667 0
7.066667 6.666667 0
7.100000 6.666667 0
7.133333 6.666667 0
7.166667 6.666667 0
7.200000 6.666667 0
7.233333 6.666667 0
7.266667 6.666667 0
7.300000 6.666667 0
7.333333 6.666667 0
7.366667 6.666667 0
7.400000 6.666667 0
7.433333 6.666667 0
7.466667 6.666667 0
7.500000 6.666667 0
7.533333 6.666667 0
7.566667 6.666667 0
7.600000 6.666667 0
7.633333 6.666667 0
7.666667 6.666667 0
7.700000 6.666667 0
7.733333 6.666667 0
7.766667 6.666667 0
7.800000 6.666667 0
7.833333 6.666667 0
7.866667 6.666667 0
7.900000 6.666667 0
7.933333 6.666667 0
7.966667 6.666667 0
8.000000 6.666667 0
8.033333 6.666667 0
8.066667 6.666667 0
8.100000 6.666667 0
8.133333 6.666667 0
8.166667 6.666667 0
8.200000 6.666667 0
8.233333 6.666667 0
8.266667 6.666667 0
8.300000 6.666667 0
8.333333 6.666667 0
8.366667 6.666667 0
8.400000 6.666667 0
8.433333 6.666667 0
8.466667 6.666667 0
8.500000 6.666667 0
8.533333 6.666667 0
8.566667 6.666667 0
8.600000 6.666667 0
8.633333 6.666667 0
8.666667 6.666667 0
8.700000 6.666667 0
8.733333 6.666667 0
8.766667 6.666667 0
8.800000 6.666667 0
8.833333 6.666667 0
8.866667 6.666667 0
8.900000 6.666667 0
8.933333 6.666667 0
8.966667 6.666667 0
9.000000 6.666667 0
9.033333 6.666667 0
9.066667 6.666667 0
9.100000 6.666667 0
9.133333 6.666667 0
9.166667 6.666667 0
9.200000 6.666667 0
9.233333 6.666667 0
9.266667 6.666667 0
9.300000 6.666667 0
9.333333 6.666667 0
9.366667 6.666667 0
9.400000 6.666667 0
9.433333 6.666667 0
9.466667 6.666667 0
9.500000 6.666667 0
9.533333 6.666667 0
9.566667 6.666667 0
9.600000 6.666667 0
9.633333 6.666667 0
9.666667 6.666667 0
9.700000 6.666667 0
9.733333 6.666667 0
9.766667 6.666667 0
9.800000 6.666667 0
9.833333 6.666667 0
9.866667 6.666667 0
9.900000 6.666667 0
9.933333 6.666667 0
9.966667 6.666667 0
10.000000 6.666667 0
5.000000 6.700000 0
5.033333 6.700000 0
5.066667 6.700000 0
5.100000 6.700000 0
5.133333 6.700000 0
5.166667 6.700000 0
5.200000 6.700000 0
5.233333 6.700000 0
5.266667 6.700000 0
5.300000 6.700000 0
5.333333 6.700000 0
5.366667 6.700000 0
5.400000 6.700000 0
5.433333 6.700000 0
5.466667 6.700000 0
5.500000 6.700000 0
5.533333 6.700000 0
5.566667 6.700000 0
5.600000 6.700000 0
5.633333 6.700000 0
5.666667 6.700000 0
5.700000 6.700000 0
5.733333 6.700000 0
5.766667 6.700000 0
5.800000 6.700000 0
5.833333 6.700000 0
5.866667 6.700000 0
5.900000 6.700000 0
5.933333 6.700000 0
5.966667 6.700000 0
6.000000 6.700000 0
6.033333 6.700000 0
6.066667 6.700000 0
6.100000 6.700000 0
6.133333 6.700000 0
6.166667 6.700000 0
6.200000 6.700000 0
6.233333 6.700000 0
6.266667 6.700000 0
6.300000 6.700000 0
6.333333 6.700000 0
6.366667 6.700000 0
6.400000 6.700000 0
6.433333 6.700000 0
6.466667 6.700000 0
6.500000 6.700000 0
6.533333 6.700000 0
6.566667 6.700000 0
6.600000 6.700000 0
6.633333 6.700000 0
6.666667 6.700000 0
6.700000 6.700000 0
6.733333 6.700000 0
6.766667 6.700000 0
6.800000 6.700000 0
6.833333 6.700000 0
6.866667 6.700000 0
6.900000 6.700000 0
6.933333 6.700000 0
6.966667 6.700000 0
7.000000 6.700000 0
7.033333 6.700000 0
7.066667 6.700000 0
7.100000 6.700000 0
7.133333 6.700000 0
7.166667 6.700000 0
7.200000 6.700000 0
7.233333 6.700000 0
7.266667 6.700000 0
7.300000 6.700000 0
7.333333 6.700000 0
7.366667 6.700000 0
7.400000 6.700000 0
7.433333 6.700000 0
7.466667 6.700000 0
7.500000 6.700000 0
7.533333 6.700000 0
7.566667 6.700000 0
7.600000 6.700000 0
7.633333 6.700000 0
7.666667 6.700000 0
7.700000 6.700000 0
7.733333 6.700000 0
7.766667 6.700000 0
7.800000 6.700000 0
7.833333 6.700000 0
7.866667 6.700000 0
7.900000 6.700000 0
7.933333 6.700000 0
7.966667 6.700000 0
8.000000 6.700000 0
8.033333 6.700000 0
8.066667 6.700000 0
8.100000 6.700000 0
8.133333 6.700000 0
8.166667 6.700000 0
8.200000 6.700000 0
8.233333 6.700000 0
8.266667 6.700000 0
8.300000 6.700000 0
8.333333 6.700000 0
8.366667 6.700000 0
8.400000 6.700000 0
8.433333 6.700000 0
8.466667 6.700000 0
8.500000 6.700000 0
8.533333 6.700000 0
8.566667 6.700000 0
8.600000 6.700000 0
8.633333 6.700000 0
8.666667 6.700000 0
8.700000 6.700000 0
8.733333 6.700000 0
8.766667 6.700000 0
8.800000 6.700000 0
8.833333 6.700000 0
8.866667 6.700000 0
8.900000 6.700000 0
8.933333 6.700000 0
8.966667 6.700000 0
9.000000 6.700000 0
9.033333 6.700000 0
9.066667 6.700000 0
9.100000 6.700000 0
9.133333 6.700000 0
9.166667 6.700000 0
9.200000 6.700000 0
9.233333 6.700000 0
9.266667 6.700000 0
9.300000 6.700000 0
9.333333 6.700000 0
9.366667 6.700000 0
9.400000 6.700000 0
9.433333 6.700000 0
9.466667 6.700000 0
9.500000 6.700000 0
9.533333 6.700000 0
9.566667 6.700000 0
9.600000 6.700000 0
9.633333 6.700000 0
9.666667 6.700000 0
9.700000 6.700000 0
9.733333 6.700000 0
9.766667 6.700000 0
9.800000 6.700000 0
9.833333 6.700000 0
9.866667 6.700000 0
9.900000 6.700000 0
9.933333 6.700000 0
9.966667 6.700000 0
10.000000 6.700000 0
5.000000 6.733333 0
5.033333 6.733333 0
5.066667 6.733333 0
5.100000 6.733333 0
5.133333 6.733333 0
5.166667 6.733333 0
5.200000 6.733333 0
5.233333 6.733333 0
5.266667 6.733333 0
5.300000 6.733333 0
5.333333 6.733333 0
5.366667 6.733333 0
5.400000 6.733333 0
5.433333 6.733333 0
5.466667 6.733333 0
5.500000 6.733333 0
5.533333 6.733333 0
5.566667 6.733333 0
5.600000 6.733333 0
5.633333 6.733333 0
5.666667 6.733333 0
5.700000 6.733333 0
5.733333 6.733333 0
5.766667 6.733333 0
5.800000 6.733333 0
5.833333 6.733333 0
5.866667 6.733333 0
5.900000 6.733333 0
5.933333 6.733333 0
5.966667 6.733333 0
6.000000 6.733333 0
6.033333 6.733333 0
6.066667 6.733333 0
6.100000 6.733333 0
6.133333 6.733333 0
6.166667 6.733333 0
6.200000 6.733333 0
6.233333 6.733333 0
6.266667 6.733333 0
6.300000 6.733333 0
6.333333 6.733333 0
6.366667 6.733333 0
6.400000 6.733333 0
6.433333 6.733333 0
6.466667 6.733333 0
6.500000 6.733333 0
6.533333 6.733333 0
6.566667 6.733333 0
6.600000 6.733333 0
6.633333 6.733333 0
6.666667 6.733333 0
6.700000 6.733333 0
6.733333 6.733333 0
6.766667 6.733333 0
6.800000 6.733333 0
6.833333 6.733333 0
6.866667 6.733333 0
6.900000 6.733333 0
6.933333 6.733333 0
6.966667 6.733333 0
7.000000 6.733333 0
7.033333 6.733333 0
7.066667 6.733333 0
7.100000 6.733333 0
7.133333 6.733333 0
7.166667 6.733333 0
7.200000 6.733333 0
7.233333 6.733333 0
7.266667 6.733333 0
7.300000 6.733333 0
7.333333 6.733333 0
7.366667 6.733333 0
7.400000 6.733333 0
7.433333 6.733333 0
7.466667 6.733333 0
7.500000 6.733333 0
7.533333 6.733333 0
7.566667 6.733333 0
7.600000 6.733333 0
7.633333 6.733333 0
7.666667 6.733333 0
7.700000 6.733333 0
7.733333 6.733333 0
7.766667 6.733333 0
7.800000 6.733333 0
7.833333 6.733333 0
7.866667 6.733333 0
7.900000 6.733333 0
7.933333 6.733333 0
7.966667 6.733333 0
8.000000 6.733333 0
8.033333 6.733333 0
8.066667 6.733333 0
8.100000 6.733333 0
8.133333 6.733333 0
8.166667 6.733333 0
8.200000 6.733333 0
8.233333 6.733333 0
8.266667 6.733333 0
8.300000 6.733333 0
8.333333 6.733333 0
8.366667 6.733333 0
8.400000 6.733333 0
8.433333 6.733333 0
8.466667 6.733333 0
8.500000 6.733333 0
8.533333 6.733333 0
8.566667 6.733333 0
8.600000 6.733333 0
8.633333 6.733333 0
8.666667 6.733333 0
8.700000 6.733333 0
8.733333 6.733333 0
8.766667 6.733333 0
8.800000 6.733333 0
8.833333 6.733333 0
8.866667 6.733333 0
8.900000 6.733333 0
8.933333 6.733333 0
8.966667 6.733333 0
9.000000 6.733333 0
9.033333 6.733333 0
9.066667 6.733333 0
9.100000 6.733333 0
9.133333 6.733333 0
9.166667 6.733333 0
9.200000 6.733333 0
9.233333 6.733333 0
9.266667 6.733333 0
9.300000 6.733333 0
9.333333 6.733333 0
9.366667 6.733333 0
9.400000 6.733333 0
9.433333 6.733333 0
9.466667 6.733333 0
9.500000 6.733333 0
9.533333 6.733333 0
9.566667 6.733333 0
9.600000 6.733333 0
9.633333 6.733333 0
9.666667 6.733333 0
9.700000 6.733333 0
9.733333 6.733333 0
9.766667 6.733333 0
9.800000 6.733333 0
9.833333 6.733333 0
9.866667 6.733333 0
9.900000 6.733333 0
9.933333 6.733333 0
9.966667 6.733333 0
10.000000 6.733333 0
5.000000 6.766667 0
5.033333 6.766667 0
5.066667 6.766667 0
5.100000 6.766667 0
5.133333 6.766667 0
5.166667 6.766667 0
5.200000 6.766667 0
5.233333 6.766667 0
5.266667 6.766667 0
5.300000 6.766667 0
5.333333 6.766667 0
5.366667 6.766667 0
5.400000 6.766667 0
5.433333 6.766667 0
5.466667 6.766667 0
5.500000 6.766667 0
5.533333 6.766667 0
5.566667 6.766667 0
5.600000 6.766667 0
5.633333 6.766667 0
5.666667 6.766667 0
5.700000 6.766667 0
5.733333 6.766667 0
5.766667 6.766667 0
5.800000 6.766667 0
5.833333 6.766667 0
5.866667 6.766667 0
5.900000 6.766667 0
5.933333 6.766667 0
5.966667 6.766667 0
6.000000 6.766667 0
6.033333 6.766667 0
6.066667 6.766667 0
6.100000 6.766667 0
6.133333 6.766667 0
6.166667 6.766667 0
6.200000 6.766667 0
6.233333 6.766667 0
[...]
POINT_DATA 15251 

VECTORS velocity float
-0.049245 0.000836 0
-0.049258 0.000433 0
-0.049269 0.000029 0
-0.049280 -0.000375 0
-0.049289 -0.000779 0
-0.049297 -0.001184 0
-0.049304 -0.001589 0
-0.049309 -0.001995 0
-0.049314 -0.002401 0
-0.049317 -0.002808 0
-0.049319 -0.003216 0
-0.049320 -0.003624 0
-0.049319 -0.004034 0
-0.049318 -0.004445 0
-0.049314 -0.004856 0
-0.049310 -0.005269 0
-0.049304 -0.005683 0
-0.049297 -0.006098 0
-0.049288 -0.006515 0
-0.049278 -0.006933 0
-0.049267 -0.007353 0
-0.049254 -0.007774 0
-0.049239 -0.008197 0
-0.049222 -0.008621 0
-0.049204 -0.009048 0
-0.049184 -0.009476 0
-0.049163 -0.009906 0
-0.049139 -0.010339 0
-0.049114 -0.010773 0
-0.049086 -0.011210 0
-0.049056 -0.011649 0
-0.049025 -0.012090 0
-0.048991 -0.012534 0
-0.048955 -0.012980 0
-0.048916 -0.013429 0
-0.048875 -0.013880 0
-0.048831 -0.014334 0
-0.048785 -0.014790 0
-0.048736 -0.015250 0
-0.048684 -0.015712 0
-0.048630 -0.016177 0
-0.048572 -0.016645 0
-0.048511 -0.017116 0
-0.048447 -0.017591 0
-0.048379 -0.018068 0
-0.048308 -0.018548 0
-0.048234 -0.019032 0
-0.048155 -0.019519 0
-0.048073 -0.020010 0
-0.047987 -0.020503 0
-0.047896 -0.021000 0
-0.047801 -0.021501 0
-0.047702 -0.022005 0
-0.047598 -0.022512 0
-0.047490 -0.023023 0
-0.047376 -0.023538 0
-0.047257 -0.024056 0
-0.047134 -0.024578 0
-0.047004 -0.025103 0
-0.046869 -0.025632 0
-0.046729 -0.026164 0
-0.046582 -0.026700 0
-0.046429 -0.027239 0
-0.046270 -0.027782 0
-0.046104 -0.028329 0
-0.045932 -0.028879 0
-0.045752 -0.029432 0
-0.045566 -0.029989 0
-0.045372 -0.030549 0
-0.045170 -0.031113 0
-0.044961 -0.031679 0
-0.044743 -0.032249 0
-0.044518 -0.032822 0
-0.044283 -0.033398 0
-0.044041 -0.033976 0
-0.043789 -0.034558 0
-0.043528 -0.035142 0
-0.043257 -0.035728 0
-0.042977 -0.036317 0
-0.042687 -0.036909 0
-0.042387 -0.037502 0
-0.042077 -0.038097 0
-0.041756 -0.038693 0
-0.041425 -0.039292 0
-0.041082 -0.039891 0
-0.040728 -0.040492 0
-0.040362 -0.041093 0
-0.039985 -0.041695 0
-0.039596 -0.042297 0
-0.039195 -0.042899 0
-0.038781 -0.043501 0
-0.038355 -0.044103 0
-0.037916 -0.044704 0
-0.037464 -0.045303 0
-0.036999 -0.045901 0
-0.036520 -0.046496 0
-0.036028 -0.047090 0
-0.035523 -0.047681 0
-0.035004 -0.048268 0
-0.034470 -0.048852 0
-0.033923 -0.049432 0
-0.033362 -0.050007 0
-0.032787 -0.050577 0
-0.032197 -0.051141 0
-0.031593 -0.051699 0
-0.030975 -0.052250 0
-0.030342 -0.052792 0
-0.029695 -0.053326 0
-0.029034 -0.053850 0
-0.028359 -0.054363 0
-0.027670 -0.054864 0
-0.026967 -0.055352 0
-0.026250 -0.055825 0
-0.025520 -0.056281 0
-0.024776 -0.056718 0
-0.024020 -0.057135 0
-0.023251 -0.057527 0
-0.022470 -0.057893 0
-0.021678 -0.058229 0
-0.020874 -0.058531 0
-0.020060 -0.058794 0
-0.019237 -0.059014 0
-0.018405 -0.059186 0
-0.017564 -0.059302 0
-0.016718 -0.059355 0
-0.015865 -0.059339 0
-0.015009 -0.059245 0
-0.014149 -0.059063 0
-0.013289 -0.058783 0
-0.012429 -0.058394 0
-0.011572 -0.057884 0
-0.010720 -0.057241 0
-0.009875 -0.056451 0
-0.009040 -0.055500 0
-0.008218 -0.054373 0
-0.007412 -0.053056 0
-0.006624 -0.051531 0
-0.005859 -0.049784 0
-0.005121 -0.047798 0
-0.004413 -0.045557 0
-0.003739 -0.043045 0
-0.003105 -0.040246 0
-0.002515 -0.037146 0
-0.001973 -0.033729 0
-0.001486 -0.029984 0
-0.001057 -0.025897 0
-0.000694 -0.021456 0
-0.000400 -0.016653 0
-0.000183 -0.011479 0
-0.000048 -0.005929 0
0.000000 0.000000 0
-0.049649 0.000850 0
-0.049662 0.000445 0
-0.049674 0.000040 0
-0.049684 -0.000365 0
-0.049694 -0.000770 0
-0.049702 -0.001176 0
-0.049710 -0.001582 0
-0.049716 -0.001989 0
-0.049721 -0.002397 0
-0.049725 -0.002805 0
-0.049728 -0.003214 0
-0.049730 -0.003624 0
-0.049730 -0.004034 0
-0.049729 -0.004446 0
-0.049727 -0.004859 0
-0.049724 -0.005273 0
-0.049720 -0.005688 0
-0.049714 -0.006105 0
-0.049706 -0.006523 0
-0.049698 -0.006943 0
-0.049688 -0.007364 0
-0.049676 -0.007786 0
-0.049663 -0.008211 0
-0.049649 -0.008637 0
-0.049632 -0.009065 0
-0.049615 -0.009495 0
-0.049595 -0.009928 0
-0.049573 -0.010362 0
-0.049550 -0.010798 0
-0.049525 -0.011237 0
-0.049498 -0.011678 0
-0.049468 -0.012121 0
-0.049437 -0.012567 0
-0.049403 -0.013015 0
-0.049367 -0.013466 0
-0.049329 -0.013920 0
-0.049288 -0.014376 0
-0.049245 -0.014836 0
-0.049198 -0.015298 0
-0.049150 -0.015763 0
-0.049098 -0.016231 0
-0.049043 -0.016702 0
-0.048985 -0.017177 0
-0.048924 -0.017654 0
-0.048860 -0.018135 0
-0.048792 -0.018619 0
-0.048721 -0.019106 0
-0.048646 -0.019597 0
-0.048567 -0.020091 0
-0.048484 -0.020589 0
-0.048397 -0.021090 0
-0.048306 -0.021595 0
-0.048210 -0.022104 0
-0.048110 -0.022616 0
-0.048005 -0.023132 0
-0.047895 -0.023651 0
-0.047780 -0.024174 0
-0.047660 -0.024701 0
-0.047534 -0.025232 0
-0.047403 -0.025767 0
-0.047266 -0.026305 0
-0.047123 -0.026847 0
-0.046974 -0.027393 0
-0.046818 -0.027942 0
-0.046656 -0.028495 0
-0.046487 -0.029052 0
-0.046311 -0.029613 0
-0.046128 -0.030177 0
-0.045937 -0.030744 0
-0.045739 -0.031315 0
-0.045533 -0.031890 0
-0.045319 -0.032468 0
-0.045096 -0.033049 0
-0.044865 -0.033634 0
-0.044625 -0.034221 0
-0.044376 -0.034812 0
-0.044118 -0.035405 0
-0.043850 -0.036001 0
-0.043572 -0.036600 0
-0.043285 -0.037201 0
-0.042987 -0.037805 0
-0.042678 -0.038410 0
-0.042359 -0.039018 0
-0.042029 -0.039627 0
-0.041688 -0.040238 0
-0.041335 -0.040850 0
-0.040970 -0.041463 0
-0.040593 -0.042077 0
-0.040204 -0.042691 0
-0.039803 -0.043306 0
-0.039389 -0.043920 0
-0.038962 -0.044535 0
-0.038522 -0.045148 0
-0.038069 -0.045761 0
-0.037602 -0.046372 0
-0.037122 -0.046981 0
-0.036628 -0.047589 0
-0.036120 -0.048193 0
-0.035597 -0.048795 0
-0.035060 -0.049393 0
-0.034509 -0.049987 0
-0.033944 -0.050576 0
-0.033363 -0.051161 0
-0.032768 -0.051739 0
-0.032158 -0.052312 0
-0.031534 -0.052877 0
-0.030895 -0.053434 0
-0.030240 -0.053982 0
-0.029572 -0.054521 0
-0.028888 -0.055048 0
-0.028190 -0.055564 0
-0.027477 -0.056065 0
-0.026751 -0.056552 0
-0.026010 -0.057022 0
-0.025255 -0.057472 0
-0.024488 -0.057902 0
-0.023707 -0.058307 0
-0.022913 -0.058685 0
-0.022108 -0.059032 0
-0.021291 -0.059345 0
-0.020463 -0.059618 0
-0.019625 -0.059848 0
-0.018778 -0.060028 0
-0.017922 -0.060151 0
-0.017060 -0.060211 0
-0.016192 -0.060200 0
-0.015319 -0.060109 0
-0.014443 -0.059929 0
-0.013566 -0.059649 0
-0.012689 -0.059259 0
-0.011815 -0.058745 0
-0.010946 -0.058096 0
-0.010083 -0.057298 0
-0.009231 -0.056335 0
-0.008392 -0.055194 0
-0.007569 -0.053859 0
-0.006765 -0.052314 0
-0.005984 -0.050542 0
-0.005230 -0.048527 0
-0.004507 -0.046253 0
-0.003819 -0.043704 0
-0.003172 -0.040863 0
-0.002569 -0.037716 0
-0.002016 -0.034248 0
-0.001517 -0.030445 0
-0.001080 -0.026295 0
-0.000708 -0.021787 0
-0.000409 -0.016909 0
-0.000187 -0.011656 0
-0.000049 -0.006020 0
0.000000 0.000000 0
-0.050054 0.000863 0
-0.050067 0.000457 0
-0.050079 0.000051 0
-0.050090 -0.000355 0
-0.050100 -0.000761 0
-0.050109 -0.001168 0
-0.050117 -0.001575 0
-0.050124 -0.001983 0
-0.050129 -0.002392 0
-0.050134 -0.002801 0
-0.050138 -0.003211 0
-0.050140 -0.003622 0
-0.050142 -0.004034 0
-0.050142 -0.004447 0
-0.050141 -0.004861 0
-0.050139 -0.005276 0
-0.050136 -0.005693 0
-0.050132 -0.006111 0
-0.050126 -0.006530 0
-0.050119 -0.006951 0
-0.050110 -0.007374 0
-0.050101 -0.007798 0
-0.050089 -0.008224 0
-0.050077 -0.008652 0
-0.050062 -0.009081 0
-0.050046 -0.009513 0
-0.050029 -0.009947 0
-0.050010 -0.010383 0
-0.049989 -0.010821 0
-0.049966 -0.011262 0
-0.049941 -0.011705 0
-0.049914 -0.012150 0
-0.049885 -0.012598 0
-0.049854 -0.013049 0
-0.049821 -0.013502 0
-0.049785 -0.013958 0
-0.049747 -0.014417 0
-0.049707 -0.014879 0
-0.049663 -0.015344 0
-0.049618 -0.015812 0
-0.049569 -0.016283 0
-0.049517 -0.016757 0
-0.049463 -0.017234 0
-0.049405 -0.017715 0
-0.049344 -0.018199 0
-0.049280 -0.018686 0
-0.049212 -0.019177 0
-0.049140 -0.019672 0
-0.049065 -0.020170 0
-0.048986 -0.020672 0
-0.048902 -0.021177 0
-0.048815 -0.021687 0
-0.048723 -0.022200 0
-0.048626 -0.022716 0
-0.048525 -0.023237 0
-0.048419 -0.023762 0
-0.048308 -0.024290 0
-0.048191 -0.024822 0
-0.048069 -0.025358 0
-0.047942 -0.025899 0
-0.047809 -0.026443 0
-0.047670 -0.026991 0
-0.047524 -0.027543 0
-0.047373 -0.028099 0
-0.047214 -0.028659 0
-0.047049 -0.029222 0
-0.046877 -0.029790 0
-0.046697 -0.030361 0
-0.046511 -0.030937 0
-0.046316 -0.031516 0
-0.046113 -0.032098 0
-0.045903 -0.032684 0
-0.045683 -0.033274 0
-0.045455 -0.033867 0
-0.045219 -0.034464 0
-0.044973 -0.035064 0
-0.044717 -0.035667 0
-0.044452 -0.036272 0
-0.044177 -0.036881 0
-0.043892 -0.037493 0
-0.043597 -0.038106 0
-0.043290 -0.038723 0
-0.042973 -0.039341 0
-0.042645 -0.039962 0
-0.042305 -0.040584 0
-0.041953 -0.041208 0
-0.041590 -0.041833 0
-0.041214 -0.042459 0
-0.040825 -0.043086 0
-0.040424 -0.043713 0
-0.040010 -0.044341 0
-0.039583 -0.044968 0
-0.039142 -0.045595 0
-0.038688 -0.046221 0
-0.038220 -0.046846 0
-0.037738 -0.047469 0
-0.037241 -0.048091 0
-0.036730 -0.048710 0
-0.036205 -0.049326 0
-0.035665 -0.049938 0
-0.035110 -0.050547 0
-0.034540 -0.051151 0
-0.033955 -0.051751 0
-0.033354 -0.052344 0
-0.032739 -0.052932 0
-0.032108 -0.053512 0
-0.031462 -0.054084 0
-0.030800 -0.054647 0
-0.030124 -0.055201 0
-0.029432 -0.055743 0
-0.028725 -0.056273 0
-0.028003 -0.056790 0
-0.027266 -0.057291 0
-0.026514 -0.057774 0
-0.025749 -0.058239 0
-0.024969 -0.058682 0
-0.024176 -0.059100 0
-0.023370 -0.059490 0
-0.022551 -0.059850 0
-0.021720 -0.060174 0
-0.020878 -0.060458 0
-0.020025 -0.060697 0
-0.019163 -0.060886 0
-0.018292 -0.061017 0
-0.017413 -0.061084 0
-0.016528 -0.061079 0
-0.015639 -0.060992 0
-0.014746 -0.060814 0
-0.013851 -0.060535 0
-0.012957 -0.060143 0
-0.012065 -0.059625 0
-0.011178 -0.058970 0
-0.010299 -0.058163 0
-0.009429 -0.057189 0
-0.008572 -0.056034 0
-0.007732 -0.054681 0
-0.006911 -0.053114 0
-0.006113 -0.051317 0
-0.005343 -0.049273 0
-0.004605 -0.046965 0
-0.003902 -0.044378 0
-0.003240 -0.041494 0
-0.002624 -0.038300 0
-0.002059 -0.034779 0
-0.001550 -0.030918 0
-0.001103 -0.026704 0
-0.000724 -0.022125 0
-0.000418 -0.017173 0
-0.000191 -0.011837 0
-0.000050 -0.006114 0
0.000000 0.000000 0
-0.050461 0.000877 0
-0.050474 0.000470 0
-0.050486 0.000063 0
-0.050497 -0.000344 0
-0.050507 -0.000752 0
-0.050516 -0.001159 0
-0.050525 -0.001568 0
-0.050532 -0.001977 0
-0.050539 -0.002386 0
-0.050544 -0.002796 0
-0.050549 -0.003208 0
-0.050552 -0.003619 0
-0.050555 -0.004032 0
-0.050556 -0.004447 0
-0.050557 -0.004862 0
-0.050556 -0.005278 0
-0.050554 -0.005696 0
-0.050551 -0.006115 0
-0.050547 -0.006536 0
-0.050541 -0.006958 0
-0.050534 -0.007382 0
-0.050526 -0.007807 0
-0.050517 -0.008235 0
-0.050506 -0.008664 0
-0.050494 -0.009095 0
-0.050480 -0.009529 0
-0.050465 -0.009964 0
-0.050448 -0.010402 0
-0.050429 -0.010842 0
-0.050408 -0.011284 0
-0.050386 -0.011729 0
-0.050362 -0.012177 0
-0.050335 -0.012627 0
-0.050307 -0.013079 0
-0.050276 -0.013535 0
-0.050244 -0.013993 0
-0.050209 -0.014455 0
-0.050171 -0.014919 0
-0.050131 -0.015386 0
-0.050088 -0.015857 0
-0.050043 -0.016331 0
-0.049995 -0.016808 0
-0.049943 -0.017288 0
-0.049889 -0.017772 0
-0.049832 -0.018260 0
-0.049771 -0.018751 0
-0.049706 -0.019245 0
-0.049638 -0.019743 0
-0.049567 -0.020245 0
-0.049491 -0.020751 0
-0.049412 -0.021261 0
-0.049328 -0.021774 0
-0.049240 -0.022292 0
-0.049147 -0.022813 0
-0.049050 -0.023339 0
-0.048948 -0.023868 0
-0.048841 -0.024401 0
-0.048728 -0.024939 0
-0.048610 -0.025481 0
-0.048487 -0.026027 0
-0.048358 -0.026577 0
-0.048223 -0.027131 0
-0.048082 -0.027689 0
-0.047934 -0.028252 0
-0.047780 -0.028818 0
-0.047618 -0.029389 0
-0.047450 -0.029964 0
-0.047275 -0.030542 0
-0.047092 -0.031125 0
-0.046901 -0.031712 0
-0.046702 -0.032303 0
-0.046495 -0.032897 0
-0.046279 -0.033496 0
-0.046055 -0.034098 0
-0.045821 -0.034703 0
-0.045579 -0.035312 0
-0.045327 -0.035925 0
-0.045065 -0.036541 0
-0.044793 -0.037159 0
-0.044510 -0.037781 0
-0.044217 -0.038406 0
-0.043913 -0.039033 0
-0.043598 -0.039663 0
-0.043272 -0.040295 0
-0.042934 -0.040929 0
-0.042584 -0.041564 0
-0.042221 -0.042202 0
-0.041847 -0.042840 0
-0.041459 -0.043480 0
-0.041058 -0.044120 0
-0.040644 -0.044761 0
-0.040217 -0.045402 0
-0.039776 -0.046042 0
-0.039321 -0.046683 0
-0.038851 -0.047322 0
-0.038368 -0.047959 0
-0.037869 -0.048595 0
-0.037356 -0.049229 0
-0.036828 -0.049860 0
-0.036284 -0.050487 0
-0.035725 -0.051111 0
-0.035151 -0.051731 0
-0.034561 -0.052346 0
-0.033956 -0.052955 0
-0.033335 -0.053557 0
-0.032697 -0.054153 0
-0.032044 -0.054741 0
-0.031376 -0.055320 0
-0.030691 -0.055889 0
-0.029990 -0.056446 0
-0.029274 -0.056992 0
-0.028543 -0.057523 0
-0.027796 -0.058039 0
-0.027034 -0.058538 0
-0.026257 -0.059017 0
-0.025465 -0.059474 0
-0.024660 -0.059905 0
-0.023840 -0.060309 0
-0.023008 -0.060681 0
-0.022163 -0.061017 0
-0.021306 -0.061312 0
-0.020438 -0.061562 0
-0.019560 -0.061760 0
-0.018673 -0.061900 0
-0.017778 -0.061974 0
-0.016876 -0.061974 0
-0.015969 -0.061891 0
-0.015059 -0.061716 0
-0.014146 -0.061437 0
-0.013234 -0.061044 0
-0.012324 -0.060523 0
-0.011419 -0.059862 0
-0.010521 -0.059046 0
-0.009633 -0.058061 0
-0.008758 -0.056891 0
-0.007900 -0.055520 0
-0.007061 -0.053931 0
-0.006247 -0.052108 0
-0.005460 -0.050035 0
-0.004705 -0.047693 0
-0.003988 -0.045067 0
-0.003312 -0.042140 0
-0.002682 -0.038896 0
-0.002105 -0.035321 0
-0.001584 -0.031400 0
-0.001128 -0.027121 0
-0.000740 -0.022472 0
-0.000427 -0.017441 0
-0.000195 -0.012023 0
-0.000051 -0.006210 0
0.000000 0.000000 0
-0.050868 0.000890 0
-0.050881 0.000483 0
-0.050893 0.000075 0
-0.050905 -0.000333 0
-0.050915 -0.000742 0
-0.050925 -0.001150 0
-0.050934 -0.001559 0
-0.050942 -0.001969 0
-0.050949 -0.002380 0
-0.050955 -0.002791 0
-0.050961 -0.003203 0
-0.050965 -0.003616 0
-0.050969 -0.004030 0
-0.050971 -0.004445 0
-0.050973 -0.004861 0
-0.050973 -0.005279 0
-0.050973 -0.005698 0
-0.050971 -0.006118 0
-0.050969 -0.006540 0
-0.050965 -0.006963 0
-0.050960 -0.007388 0
-0.050954 -0.007815 0
-0.050946 -0.008244 0
-0.050937 -0.008674 0
-0.050927 -0.009107 0
-0.050915 -0.009542 0
-0.050902 -0.009979 0
-0.050887 -0.010418 0
-0.050871 -0.010860 0
-0.050853 -0.011304 0
-0.050833 -0.011751 0
-0.050811 -0.012200 0
-0.050788 -0.012652 0
-0.050762 -0.013107 0
-0.050735 -0.013565 0
-0.050705 -0.014026 0
-0.050673 -0.014489 0
-0.050638 -0.014956 0
-0.050601 -0.015426 0
-0.050562 -0.015899 0
-0.050520 -0.016376 0
-0.050475 -0.016856 0
-0.050427 -0.017339 0
-0.050376 -0.017826 0
-0.050322 -0.018317 0
-0.050265 -0.018811 0
-0.050205 -0.019309 0
-0.050140 -0.019811 0
-0.050073 -0.020317 0
-0.050001 -0.020827 0
-0.049925 -0.021340 0
-0.049846 -0.021858 0
-0.049761 -0.022380 0
-0.049673 -0.022906 0
-0.049580 -0.023436 0
-0.049482 -0.023970 0
-0.049379 -0.024509 0
-0.049271 -0.025052 0
-0.049157 -0.025599 0
-0.049038 -0.026151 0
-0.048913 -0.026706 0
-0.048782 -0.027267 0
-0.048645 -0.027831 0
-0.048502 -0.028400 0
-0.048352 -0.028973 0
-0.048195 -0.029551 0
-0.048031 -0.030133 0
-0.047859 -0.030719 0
-0.047680 -0.031310 0
-0.047494 -0.031905 0
-0.047299 -0.032504 0
-0.047096 -0.033107 0
-0.046884 -0.033714 0
-0.046663 -0.034324 0
-0.046434 -0.034939 0
-0.046194 -0.035558 0
-0.045946 -0.036180 0
-0.045687 -0.036806 0
-0.045418 -0.037435 0
-0.045139 -0.038067 0
-0.044849 -0.038703 0
-0.044548 -0.039341 0
-0.044235 -0.039982 0
-0.043911 -0.040626 0
-0.043575 -0.041272 0
-0.043226 -0.041919 0
-0.042866 -0.042569 0
-0.042492 -0.043221 0
-0.042106 -0.043873 0
-0.041706 -0.044527 0
-0.041292 -0.045181 0
-0.040865 -0.045836 0
-0.040424 -0.046491 0
-0.039968 -0.047145 0
-0.039497 -0.047798 0
-0.039012 -0.048451 0
-0.038512 -0.049102 0
-0.037997 -0.049750 0
-0.037466 -0.050397 0
-0.036919 -0.051040 0
-0.036357 -0.051679 0
-0.035778 -0.052315 0
-0.035184 -0.052945 0
-0.034573 -0.053570 0
-0.033946 -0.054189 0
-0.033303 -0.054801 0
-0.032643 -0.055405 0
-0.031967 -0.056000 0
-0.031274 -0.056585 0
-0.030565 -0.057159 0
-0.029840 -0.057720 0
-0.029099 -0.058267 0
-0.028342 -0.058799 0
-0.027569 -0.059313 0
-0.026780 -0.059806 0
-0.025976 -0.060278 0
-0.025158 -0.060724 0
-0.024325 -0.061141 0
-0.023479 -0.061526 0
-0.022620 -0.061875 0
-0.021748 -0.062182 0
-0.020864 -0.062442 0
-0.019970 -0.062650 0
-0.019067 -0.062799 0
-0.018155 -0.062880 0
-0.017236 -0.062886 0
-0.016311 -0.062808 0
-0.015382 -0.062636 0
-0.014452 -0.062358 0
-0.013521 -0.061964 0
-0.012592 -0.061440 0
-0.011668 -0.060773 0
-0.010751 -0.059948 0
-0.009844 -0.058951 0
-0.008951 -0.057766 0
-0.008074 -0.056377 0
-0.007217 -0.054766 0
-0.006385 -0.052917 0
-0.005581 -0.050813 0
-0.004810 -0.048437 0
-0.004076 -0.045771 0
-0.003385 -0.042799 0
-0.002742 -0.039506 0
-0.002151 -0.035875 0
-0.001620 -0.031894 0
-0.001153 -0.027548 0
-0.000756 -0.022825 0
-0.000436 -0.017716 0
-0.000199 -0.012212 0
-0.000052 -0.006308 0
0.000000 0.000000 0
-0.051275 0.000904 0
-0.051289 0.000495 0
-0.051301 0.000087 0
-0.051313 -0.000322 0
-0.051324 -0.000731 0
-0.051334 -0.001141 0
-0.051344 -0.001551 0
-0.051353 -0.001961 0
-0.051360 -0.002373 0
-0.051367 -0.002785 0
-0.051374 -0.003198 0
-0.051379 -0.003611 0
-0.051384 -0.004026 0
-0.051387 -0.004442 0
-0.051390 -0.004859 0
-0.051392 -0.005278 0
-0.051393 -0.005698 0
-0.051393 -0.006119 0
-0.051392 -0.006542 0
-0.051390 -0.006966 0
-0.051386 -0.007393 0
-0.051382 -0.007821 0
-0.051376 -0.008251 0
-0.051370 -0.008683 0
-0.051361 -0.009117 0
-0.051352 -0.009553 0
-0.051341 -0.009992 0
-0.051329 -0.010433 0
-0.051315 -0.010876 0
-0.051299 -0.011322 0
-0.051282 -0.011770 0
-0.051263 -0.012221 0
-0.051242 -0.012675 0
-0.051219 -0.013132 0
-0.051195 -0.013592 0
-0.051168 -0.014055 0
-0.051139 -0.014521 0
-0.051108 -0.014990 0
-0.051074 -0.015462 0
-0.051038 -0.015938 0
-0.050999 -0.016417 0
-0.050958 -0.016900 0
-0.050914 -0.017386 0
-0.050867 -0.017877 0
-0.050816 -0.018370 0
-0.050763 -0.018868 0
-0.050706 -0.019369 0
-0.050646 -0.019875 0
-0.050582 -0.020384 0
-0.050515 -0.020898 0
-0.050443 -0.021416 0
-0.050367 -0.021938 0
-0.050288 -0.022464 0
-0.050203 -0.022994 0
-0.050114 -0.023529 0
-0.050021 -0.024068 0
-0.049922 -0.024612 0
-0.049818 -0.025160 0
-0.049709 -0.025713 0
-0.049595 -0.026270 0
-0.049474 -0.026832 0
-0.049348 -0.027398 0
-0.049215 -0.027969 0
-0.049076 -0.028544 0
-0.048930 -0.029125 0
-0.048778 -0.029709 0
-0.048618 -0.030298 0
-0.048451 -0.030892 0
-0.048277 -0.031490 0
-0.048094 -0.032093 0
-0.047904 -0.032700 0
-0.047705 -0.033312 0
-0.047497 -0.033927 0
-0.047281 -0.034547 0
-0.047055 -0.035171 0
-0.046820 -0.035800 0
-0.046575 -0.036432 0
-0.046320 -0.037068 0
-0.046054 -0.037707 0
-0.045778 -0.038350 0
-0.045491 -0.038997 0
-0.045193 -0.039646 0
-0.044883 -0.040299 0
-0.044562 -0.040954 0
-0.044228 -0.041612 0
-0.043882 -0.042273 0
-0.043523 -0.042935 0
-0.043151 -0.043600 0
-0.042766 -0.044266 0
-0.042367 -0.044933 0
-0.041954 -0.045601 0
-0.041527 -0.046270 0
-0.041086 -0.046939 0
-0.040629 -0.047608 0
-0.040158 -0.048276 0
-0.039672 -0.048944 0
-0.039170 -0.049610 0
-0.038653 -0.050274 0
-0.038119 -0.050936 0
-0.037570 -0.051596 0
-0.037004 -0.052251 0
-0.036421 -0.052903 0
-0.035822 -0.053550 0
-0.035207 -0.054191 0
-0.034574 -0.054827 0
-0.033925 -0.055455 0
-0.033258 -0.056076 0
-0.032575 -0.056688 0
-0.031874 -0.057289 0
-0.031157 -0.057880 0
-0.030422 -0.058458 0
-0.029671 -0.059021 0
-0.028904 -0.059569 0
-0.028119 -0.060099 0
-0.027319 -0.060608 0
-0.026503 -0.061095 0
-0.025672 -0.061555 0
-0.024826 -0.061987 0
-0.023965 -0.062386 0
-0.023091 -0.062747 0
-0.022204 -0.063067 0
-0.021305 -0.063339 0
-0.020394 -0.063557 0
-0.019473 -0.063715 0
-0.018544 -0.063804 0
-0.017607 -0.063817 0
-0.016664 -0.063744 0
-0.015717 -0.063574 0
-0.014767 -0.063298 0
-0.013817 -0.062903 0
-0.012869 -0.062375 0
-0.011925 -0.061702 0
-0.010989 -0.060869 0
-0.010063 -0.059860 0
-0.009150 -0.058660 0
-0.008254 -0.057252 0
-0.007379 -0.055619 0
-0.006528 -0.053744 0
-0.005706 -0.051609 0
-0.004918 -0.049197 0
-0.004168 -0.046491 0
-0.003461 -0.043473 0
-0.002803 -0.040129 0
-0.002200 -0.036442 0
-0.001656 -0.032398 0
-0.001179 -0.027984 0
-0.000773 -0.023187 0
-0.000446 -0.017997 0
-0.000204 -0.012406 0
-0.000053 -0.006408 0
0.000000 0.000000 0
-0.051684 0.000918 0
-0.051698 0.000508 0