# vtk DataFile Version 2.0
generated by CFD-lab course output (written by Tobias Neckel) 
ASCII

DATASET STRUCTURED_GRID
DIMENSIONS  26 26 1 
POINTS 676 float

0.000000 0.000000 0
0.020000 0.000000 0
0.040000 0.000000 0
0.060000 0.000000 0
0.080000 0.000000 0
0.100000 0.000000 0
0.120000 0.000000 0
0.140000 0.000000 0
0.160000 0.000000 0
0.180000 0.000000 0
0.200000 0.000000 0
0.220000 0.000000 0
0.240000 0.000000 0
0.260000 0.000000 0
0.280000 0.000000 0
0.300000 0.000000 0
0.320000 0.000000 0
0.340000 0.000000 0
0.360000 0.000000 0
0.380000 0.000000 0
0.400000 0.000000 0
0.420000 0.000000 0
0.440000 0.000000 0
0.460000 0.000000 0
0.480000 0.000000 0
0.500000 0.000000 0
0.000000 0.020000 0
0.020000 0.020000 0
0.040000 0.020000 0
0.060000 0.020000 0
0.080000 0.020000 0
0.100000 0.020000 0
0.120000 0.020000 0
0.140000 0.020000 0
0.160000 0.020000 0
0.180000 0.020000 0
0.200000 0.020000 0
0.220000 0.020000 0
0.240000 0.020000 0
0.260000 0.020000 0
0.280000 0.020000 0
0.300000 0.020000 0
0.320000 0.020000 0
0.340000 0.020000 0
0.360000 0.020000 0
0.380000 0.020000 0
0.400000 0.020000 0
0.420000 0.020000 0
0.440000 0.020000 0
0.460000 0.020000 0
0.480000 0.020000 0
0.500000 0.020000 0
0.000000 0.040000 0
0.020000 0.040000 0
0.040000 0.040000 0
0.060000 0.040000 0
0.080000 0.040000 0
0.100000 0.040000 0
0.120000 0.040000 0
0.140000 0.040000 0
0.160000 0.040000 0
0.180000 0.040000 0
0.200000 0.040000 0
0.220000 0.040000 0
0.240000 0.040000 0
0.260000 0.040000 0
0.280000 0.040000 0
0.300000 0.040000 0
0.320000 0.040000 0
0.340000 0.040000 0
0.360000 0.040000 0
0.380000 0.040000 0
0.400000 0.040000 0
0.420000 0.040000 0
0.440000 0.040000 0
0.460000 0.040000 0
0.480000 0.040000 0
0.500000 0.040000 0
0.000000 0.060000 0
0.020000 0.060000 0
0.040000 0.060000 0
0.060000 0.060000 0
0.080000 0.060000 0
0.100000 0.060000 0
0.120000 0.060000 0
0.140000 0.060000 0
0.160000 0.060000 0
0.180000 0.060000 0
0.200000 0.060000 0
0.220000 0.060000 0
0.240000 0.060000 0
0.260000 0.060000 0
0.280000 0.060000 0
0.300000 0.060000 0
0.320000 0.060000 0
0.340000 0.060000 0
0.360000 0.060000 0
0.380000 0.060000 0
0.400000 0.060000 0
0.420000 0.060000 0
0.440000 0.060000 0
0.460000 0.060000 0
0.480000 0.060000 0
0.500000 0.060000 0
0.000000 0.080000 0
0.020000 0.080000 0
0.040000 0.080000 0
0.060000 0.080000 0
0.080000 0.080000 0
0.100000 0.080000 0
0.120000 0.080000 0
0.140000 0.080000 0
0.160000 0.080000 0
0.180000 0.080000 0
0.200000 0.080000 0
0.220000 0.080000 0
0.240000 0.080000 0
0.260000 0.080000 0
0.280000 0.080000 0
0.300000 0.080000 0
0.320000 0.080000 0
0.340000 0.080000 0
0.360000 0.080000 0
0.380000 0.080000 0
0.400000 0.080000 0
0.420000 0.080000 0
0.440000 0.080000 0
0.460000 0.080000 0
0.480000 0.080000 0
0.500000 0.080000 0
0.000000 0.100000 0
0.020000 0.100000 0
0.040000 0.100000 0
0.060000 0.100000 0
0.080000 0.100000 0
0.100000 0.100000 0
0.120000 0.100000 0
0.140000 0.100000 0
0.160000 0.100000 0
0.180000 0.100000 0
0.200000 0.100000 0
0.220000 0.100000 0
0.240000 0.100000 0
0.260000 0.100000 0
0.280000 0.100000 0
0.300000 0.100000 0
0.320000 0.100000 0
0.340000 0.100000 0
0.360000 0.100000 0
0.380000 0.100000 0
0.400000 0.100000 0
0.420000 0.100000 0
0.440000 0.100000 0
0.460000 0.100000 0
0.480000 0.100000 0
0.500000 0.100000 0
0.000000 0.120000 0
0.020000 0.120000 0
0.040000 0.120000 0
0.060000 0.120000 0
0.080000 0.120000 0
0.100000 0.120000 0
0.120000 0.120000 0
0.140000 0.120000 0
0.160000 0.120000 0
0.180000 0.120000 0
0.200000 0.120000 0
0.220000 0.120000 0
0.240000 0.120000 0
0.260000 0.120000 0
0.280000 0.120000 0
0.300000 0.120000 0
0.320000 0.120000 0
0.340000 0.120000 0
0.360000 0.120000 0
0.380000 0.120000 0
0.400000 0.120000 0
0.420000 0.120000 0
0.440000 0.120000 0
0.460000 0.120000 0
0.480000 0.120000 0
0.500000 0.120000 0
0.000000 0.140000 0
0.020000 0.140000 0
0.040000 0.140000 0
0.060000 0.140000 0
0.080000 0.140000 0
0.100000 0.140000 0
0.120000 0.140000 0
0.140000 0.140000 0
0.160000 0.140000 0
0.180000 0.140000 0
0.200000 0.140000 0
0.220000 0.140000 0
0.240000 0.140000 0
0.260000 0.140000 0
0.280000 0.140000 0
0.300000 0.140000 0
0.320000 0.140000 0
0.340000 0.140000 0
0.360000 0.140000 0
0.380000 0.140000 0
0.400000 0.140000 0
0.420000 0.140000 0
0.440000 0.140000 0
0.460000 0.140000 0
0.480000 0.140000 0
0.500000 0.140000 0
0.000000 0.160000 0
0.020000 0.160000 0
0.040000 0.160000 0
0.060000 0.160000 0
0.080000 0.160000 0
0.100000 0.160000 0
0.120000 0.160000 0
0.140000 0.160000 0
0.160000 0.160000 0
0.180000 0.160000 0
0.200000 0.160000 0
0.220000 0.160000 0
0.240000 0.160000 0
0.260000 0.160000 0
0.280000 0.160000 0
0.300000 0.160000 0
0.320000 0.160000 0
0.340000 0.160000 0
0.360000 0.160000 0
0.380000 0.160000 0
0.400000 0.160000 0
0.420000 0.160000 0
0.440000 0.160000 0
0.460000 0.160000 0
0.480000 0.160000 0
0.500000 0.160000 0
0.000000 0.180000 0
0.020000 0.180000 0
0.040000 0.180000 0
0.060000 0.180000 0
0.080000 0.180000 0
0.100000 0.180000 0
0.120000 0.180000 0
0.140000 0.180000 0
0.160000 0.180000 0
0.180000 0.180000 0
0.200000 0.180000 0
0.220000 0.180000 0
0.240000 0.180000 0
0.260000 0.180000 0
0.280000 0.180000 0
0.300000 0.180000 0
0.320000 0.180000 0
0.340000 0.180000 0
0.360000 0.180000 0
0.380000 0.180000 0
0.400000 0.180000 0
0.420000 0.180000 0
0.440000 0.180000 0
0.460000 0.180000 0
0.480000 0.180000 0
0.500000 0.180000 0
0.000000 0.200000 0
0.020000 0.200000 0
0.040000 0.200000 0
0.060000 0.200000 0
0.080000 0.200000 0
0.100000 0.200000 0
0.120000 0.200000 0
0.140000 0.200000 0
0.160000 0.200000 0
0.180000 0.200000 0
0.200000 0.200000 0
0.220000 0.200000 0
0.240000 0.200000 0
0.260000 0.200000 0
0.280000 0.200000 0
0.300000 0.200000 0
0.320000 0.200000 0
0.340000 0.200000 0
0.360000 0.200000 0
0.380000 0.200000 0
0.400000 0.200000 0
0.420000 0.200000 0
0.440000 0.200000 0
0.460000 0.200000 0
0.480000 0.200000 0
0.500000 0.200000 0
0.000000 0.220000 0
0.020000 0.220000 0
0.040000 0.220000 0
0.060000 0.220000 0
0.080000 0.220000 0
0.100000 0.220000 0
0.120000 0.220000 0
0.140000 0.220000 0
0.160000 0.220000 0
0.180000 0.220000 0
0.200000 0.220000 0
0.220000 0.220000 0
0.240000 0.220000 0
0.260000 0.220000 0
0.280000 0.220000 0
0.300000 0.220000 0
0.320000 0.220000 0
0.340000 0.220000 0
0.360000 0.220000 0
0.380000 0.220000 0
0.400000 0.220000 0
0.420000 0.220000 0
0.440000 0.220000 0
0.460000 0.220000 0
0.480000 0.220000 0
0.500000 0.220000 0
0.000000 0.240000 0
0.020000 0.240000 0
0.040000 0.240000 0
0.060000 0.240000 0
0.080000 0.240000 0
0.100000 0.240000 0
0.120000 0.240000 0
0.140000 0.240000 0
0.160000 0.240000 0
0.180000 0.240000 0
0.200000 0.240000 0
0.220000 0.240000 0
0.240000 0.240000 0
0.260000 0.240000 0
0.280000 0.240000 0
0.300000 0.240000 0
0.320000 0.240000 0
0.340000 0.240000 0
0.360000 0.240000 0
0.380000 0.240000 0
0.400000 0.240000 0
0.420000 0.240000 0
0.440000 0.240000 0
0.460000 0.240000 0
0.480000 0.240000 0
0.500000 0.240000 0
0.000000 0.260000 0
0.020000 0.260000 0
0.040000 0.260000 0
0.060000 0.260000 0
0.080000 0.260000 0
0.100000 0.260000 0
0.120000 0.260000 0
0.140000 0.260000 0
0.160000 0.260000 0
0.180000 0.260000 0
0.200000 0.260000 0
0.220000 0.260000 0
0.240000 0.260000 0
0.260000 0.260000 0
0.280000 0.260000 0
0.300000 0.260000 0
0.320000 0.260000 0
0.340000 0.260000 0
0.360000 0.260000 0
0.380000 0.260000 0
0.400000 0.260000 0
0.420000 0.260000 0
0.440000 0.260000 0
0.460000 0.260000 0
0.480000 0.260000 0
0.500000 0.260000 0
0.000000 0.280000 0
0.020000 0.280000 0
0.040000 0.280000 0
0.060000 0.280000 0
0.080000 0.280000 0
0.100000 0.280000 0
0.120000 0.280000 0
0.140000 0.280000 0
0.160000 0.280000 0
0.180000 0.280000 0
0.200000 0.280000 0
0.220000 0.280000 0
0.240000 0.280000 0
0.260000 0.280000 0
0.280000 0.280000 0
0.300000 0.280000 0
0.320000 0.280000 0
0.340000 0.280000 0
0.360000 0.280000 0
0.380000 0.280000 0
0.400000 0.280000 0
0.420000 0.280000 0
0.440000 0.280000 0
0.460000 0.280000 0
0.480000 0.280000 0
0.500000 0.280000 0
0.000000 0.300000 0
0.020000 0.300000 0
0.040000 0.300000 0
0.060000 0.300000 0
0.080000 0.300000 0
0.100000 0.300000 0
0.120000 0.300000 0
0.140000 0.300000 0
0.160000 0.300000 0
0.180000 0.300000 0
0.200000 0.300000 0
0.220000 0.300000 0
0.240000 0.300000 0
0.260000 0.300000 0
0.280000 0.300000 0
0.300000 0.300000 0
0.320000 0.300000 0
0.340000 0.300000 0
0.360000 0.300000 0
0.380000 0.300000 0
0.400000 0.300000 0
0.420000 0.300000 0
0.440000 0.300000 0
0.460000 0.300000 0
0.480000 0.300000 0
0.500000 0.300000 0
0.000000 0.320000 0
0.020000 0.320000 0
0.040000 0.320000 0
0.060000 0.320000 0
0.080000 0.320000 0
0.100000 0.320000 0
0.120000 0.320000 0
0.140000 0.320000 0
0.160000 0.320000 0
0.180000 0.320000 0
0.200000 0.320000 0
0.220000 0.320000 0
0.240000 0.320000 0
0.260000 0.320000 0
0.280000 0.320000 0
0.300000 0.320000 0
0.320000 0.320000 0
0.340000 0.320000 0
0.360000 0.320000 0
0.380000 0.320000 0
0.400000 0.320000 0
0.420000 0.320000 0
0.440000 0.320000 0
0.460000 0.320000 0
0.480000 0.320000 0
0.500000 0.320000 0
0.000000 0.340000 0
0.020000 0.340000 0
0.040000 0.340000 0
0.060000 0.340000 0
0.080000 0.340000 0
0.100000 0.340000 0
0.120000 0.340000 0
0.140000 0.340000 0
0.160000 0.340000 0
0.180000 0.340000 0
0.200000 0.340000 0
0.220000 0.340000 0
0.240000 0.340000 0
0.260000 0.340000 0
0.280000 0.340000 0
0.300000 0.340000 0
0.320000 0.340000 0
0.340000 0.340000 0
0.360000 0.340000 0
0.380000 0.340000 0
0.400000 0.340000 0
0.420000 0.340000 0
0.440000 0.340000 0
0.460000 0.340000 0
0.480000 0.340000 0
0.500000 0.340000 0
0.000000 0.360000 0
0.020000 0.360000 0
0.040000 0.360000 0
0.060000 0.360000 0
0.080000 0.360000 0
0.100000 0.360000 0
0.120000 0.360000 0
0.140000 0.360000 0
0.160000 0.360000 0
0.180000 0.360000 0
0.200000 0.360000 0
0.220000 0.360000 0
0.240000 0.360000 0
0.260000 0.360000 0
0.280000 0.360000 0
0.300000 0.360000 0
0.320000 0.360000 0
0.340000 0.360000 0
0.360000 0.360000 0
0.380000 0.360000 0
0.400000 0.360000 0
0.420000 0.360000 0
0.440000 0.360000 0
0.460000 0.360000 0
0.480000 0.360000 0
0.500000 0.360000 0
0.000000 0.380000 0
0.020000 0.380000 0
0.040000 0.380000 0
0.060000 0.380000 0
0.080000 0.380000 0
0.100000 0.380000 0
0.120000 0.380000 0
0.140000 0.380000 0
0.160000 0.380000 0
0.180000 0.380000 0
0.200000 0.380000 0
0.220000 0.380000 0
0.240000 0.380000 0
0.260000 0.380000 0
0.280000 0.380000 0
0.300000 0.380000 0
0.320000 0.380000 0
0.340000 0.380000 0
0.360000 0.380000 0
0.380000 0.380000 0
0.400000 0.380000 0
0.420000 0.380000 0
0.440000 0.380000 0
0.460000 0.380000 0
0.480000 0.380000 0
0.500000 0.380000 0
0.000000 0.400000 0
0.020000 0.400000 0
0.040000 0.400000 0
0.060000 0.400000 0
0.080000 0.400000 0
0.100000 0.400000 0
0.120000 0.400000 0
0.140000 0.400000 0
0.160000 0.400000 0
0.180000 0.400000 0
0.200000 0.400000 0
0.220000 0.400000 0
0.240000 0.400000 0
0.260000 0.400000 0
0.280000 0.400000 0
0.300000 0.400000 0
0.320000 0.400000 0
0.340000 0.400000 0
0.360000 0.400000 0
0.380000 0.400000 0
0.400000 0.400000 0
0.420000 0.400000 0
0.440000 0.400000 0
0.460000 0.400000 0
0.480000 0.400000 0
0.500000 0.400000 0
0.000000 0.420000 0
0.020000 0.420000 0
0.040000 0.420000 0
0.060000 0.420000 0
0.080000 0.420000 0
0.100000 0.420000 0
0.120000 0.420000 0
0.140000 0.420000 0
0.160000 0.420000 0
0.180000 0.420000 0
0.200000 0.420000 0
0.220000 0.420000 0
0.240000 0.420000 0
0.260000 0.420000 0
0.280000 0.420000 0
0.300000 0.420000 0
0.320000 0.420000 0
0.340000 0.420000 0
0.360000 0.420000 0
0.380000 0.420000 0
0.400000 0.420000 0
0.420000 0.420000 0
0.440000 0.420000 0
0.460000 0.420000 0
0.480000 0.420000 0
0.500000 0.420000 0
0.000000 0.440000 0
0.020000 0.440000 0
0.040000 0.440000 0
0.060000 0.440000 0
0.080000 0.440000 0
0.100000 0.440000 0
0.120000 0.440000 0
0.140000 0.440000 0
0.160000 0.440000 0
0.180000 0.440000 0
0.200000 0.440000 0
0.220000 0.440000 0
0.240000 0.440000 0
0.260000 0.440000 0
0.280000 0.440000 0
0.300000 0.440000 0
0.320000 0.440000 0
0.340000 0.440000 0
0.360000 0.440000 0
0.380000 0.440000 0
0.400000 0.440000 0
0.420000 0.440000 0
0.440000 0.440000 0
0.460000 0.440000 0
0.480000 0.440000 0
0.500000 0.440000 0
0.000000 0.460000 0
0.020000 0.460000 0
0.040000 0.460000 0
0.060000 0.460000 0
0.080000 0.460000 0
0.100000 0.460000 0
0.120000 0.460000 0
0.140000 0.460000 0
0.160000 0.460000 0
0.180000 0.460000 0
0.200000 0.460000 0
0.220000 0.460000 0
0.240000 0.460000 0
0.260000 0.460000 0
0.280000 0.460000 0
0.300000 0.460000 0
0.320000 0.460000 0
0.340000 0.460000 0
0.360000 0.460000 0
0.380000 0.460000 0
0.400000 0.460000 0
0.420000 0.460000 0
0.440000 0.460000 0
0.460000 0.460000 0
0.480000 0.460000 0
0.500000 0.460000 0
0.000000 0.480000 0
0.020000 0.480000 0
0.040000 0.480000 0
0.060000 0.480000 0
0.080000 0.480000 0
0.100000 0.480000 0
0.120000 0.480000 0
0.140000 0.480000 0
0.160000 0.480000 0
0.180000 0.480000 0
0.200000 0.480000 0
0.220000 0.480000 0
0.240000 0.480000 0
0.260000 0.480000 0
0.280000 0.480000 0
0.300000 0.480000 0
0.320000 0.480000 0
0.340000 0.480000 0
0.360000 0.480000 0
0.380000 0.480000 0
0.400000 0.480000 0
0.420000 0.480000 0
0.440000 0.480000 0
0.460000 0.480000 0
0.480000 0.480000 0
0.500000 0.480000 0
0.000000 0.500000 0
0.020000 0.500000 0
0.040000 0.500000 0
0.060000 0.500000 0
0.080000 0.500000 0
0.100000 0.500000 0
0.120000 0.500000 0
0.140000 0.500000 0
0.160000 0.500000 0
0.180000 0.500000 0
0.200000 0.500000 0
0.220000 0.500000 0
0.240000 0.500000 0
0.260000 0.500000 0
0.280000 0.500000 0
0.300000 0.500000 0
0.320000 0.500000 0
0.340000 0.500000 0
0.360000 0.500000 0
0.380000 0.500000 0
0.400000 0.500000 0
0.420000 0.500000 0
0.440000 0.500000 0
0.460000 0.500000 0
0.480000 0.500000 0
0.500000 0.500000 0
POINT_DATA 676 

VECTORS velocity float
0.000000 0.000000 0
0.000019 0.000000 0
0.000018 0.000000 0
0.000016 0.000000 0
0.000015 0.000000 0
0.000013 0.000000 0
0.000011 0.000000 0
0.000009 0.000000 0
0.000007 0.000000 0
0.000004 0.000000 0
0.000002 0.000000 0
0.000000 0.000000 0
-0.000002 0.000000 0
-0.000004 0.000000 0
-0.000006 0.000000 0
-0.000008 0.000000 0
-0.000010 0.000000 0
-0.000012 0.000000 0
-0.000014 0.000000 0
-0.000016 0.000000 0
-0.000018 0.000000 0
-0.000020 0.000000 0
-0.000021 0.000000 0
-0.000023 0.000000 0
-0.000024 0.000000 0
0.000000 0.000000 0
0.000000 0.000031 0
0.000040 0.000064 0
0.000037 0.000066 0
0.000033 0.000068 0
0.000030 0.000070 0
0.000026 0.000071 0
0.000022 0.000072 0
0.000018 0.000072 0
0.000013 0.000073 0
0.000009 0.000072 0
0.000004 0.000072 0
-0.000000 0.000071 0
-0.000005 0.000070 0
-0.000009 0.000068 0
-0.000014 0.000067 0
-0.000018 0.000065 0
-0.000022 0.000062 0
-0.000026 0.000060 0
-0.000030 0.000057 0
-0.000034 0.000054 0
-0.000037 0.000050 0
-0.000041 0.000047 0
-0.000044 0.000043 0
-0.000048 0.000039 0
-0.000051 0.000035 0
0.000000 0.000031 0
0.000000 0.000043 0
0.000043 0.000088 0
0.000039 0.000091 0
0.000035 0.000093 0
0.000031 0.000095 0
0.000027 0.000097 0
0.000023 0.000098 0
0.000018 0.000099 0
0.000013 0.000099 0
0.000008 0.000098 0
0.000003 0.000097 0
-0.000002 0.000096 0
-0.000006 0.000094 0
-0.000011 0.000092 0
-0.000016 0.000090 0
-0.000021 0.000087 0
-0.000025 0.000083 0
-0.000029 0.000079 0
-0.000034 0.000075 0
-0.000038 0.000071 0
-0.000042 0.000066 0
-0.000045 0.000061 0
-0.000049 0.000056 0
-0.000052 0.000051 0
-0.000056 0.000045 0
0.000000 0.000039 0
0.000000 0.000056 0
0.000046 0.000115 0
0.000042 0.000118 0
0.000038 0.000121 0
0.000033 0.000124 0
0.000029 0.000126 0
0.000023 0.000127 0
0.000018 0.000127 0
0.000013 0.000127 0
0.000007 0.000127 0
0.000002 0.000125 0
-0.000003 0.000123 0
-0.000009 0.000121 0
-0.000014 0.000118 0
-0.000019 0.000114 0
-0.000024 0.000110 0
-0.000029 0.000106 0
-0.000034 0.000101 0
-0.000038 0.000095 0
-0.000043 0.000090 0
-0.000047 0.000084 0
-0.000051 0.000077 0
-0.000055 0.000070 0
-0.000059 0.000063 0
-0.000062 0.000056 0
0.000000 0.000049 0
0.000000 0.000071 0
0.000051 0.000145 0
0.000046 0.000149 0
0.000041 0.000153 0
0.000036 0.000156 0
0.000030 0.000158 0
0.000024 0.000159 0
0.000018 0.000159 0
0.000012 0.000159 0
0.000006 0.000158 0
-0.000000 0.000156 0
-0.000006 0.000153 0
-0.000012 0.000150 0
-0.000018 0.000146 0
-0.000024 0.000141 0
-0.000029 0.000136 0
-0.000035 0.000130 0
-0.000040 0.000124 0
-0.000045 0.000117 0
-0.000050 0.000110 0
-0.000054 0.000102 0
-0.000059 0.000094 0
-0.000063 0.000086 0
-0.000067 0.000077 0
-0.000071 0.000068 0
0.000000 0.000058 0
0.000000 0.000088 0
0.000056 0.000178 0
0.000051 0.000184 0
0.000045 0.000188 0
0.000038 0.000191 0
0.000032 0.000193 0
0.000025 0.000195 0
0.000018 0.000195 0
0.000011 0.000194 0
0.000004 0.000192 0
-0.000003 0.000190 0
-0.000010 0.000186 0
-0.000016 0.000182 0
-0.000023 0.000177 0
-0.000029 0.000171 0
-0.000035 0.000164 0
-0.000041 0.000157 0
-0.000047 0.000149 0
-0.000053 0.000141 0
-0.000058 0.000132 0
-0.000063 0.000122 0
-0.000068 0.000112 0
-0.000072 0.000102 0
-0.000077 0.000091 0
-0.000081 0.000080 0
0.000000 0.000069 0
0.000000 0.000107 0
0.000062 0.000217 0
0.000056 0.000223 0
0.000049 0.000227 0
0.000041 0.000231 0
0.000034 0.000233 0
0.000026 0.000234 0
0.000018 0.000234 0
0.000010 0.000233 0
0.000002 0.000231 0
-0.000006 0.000227 0
-0.000014 0.000223 0
-0.000022 0.000217 0
-0.000029 0.000211 0
-0.000036 0.000203 0
-0.000043 0.000195 0
-0.000050 0.000186 0
-0.000056 0.000177 0
-0.000062 0.000166 0
-0.000068 0.000155 0
-0.000074 0.000144 0
-0.000079 0.000132 0
-0.000084 0.000119 0
-0.000089 0.000106 0
-0.000093 0.000093 0
0.000000 0.000079 0
0.000000 0.000128 0
0.000069 0.000260 0
0.000061 0.000266 0
0.000053 0.000272 0
0.000044 0.000275 0
0.000035 0.000278 0
0.000026 0.000279 0
0.000017 0.000278 0
0.000007 0.000276 0
-0.000002 0.000273 0
-0.000011 0.000269 0
-0.000020 0.000263 0
-0.000028 0.000256 0
-0.000037 0.000248 0
-0.000045 0.000239 0
-0.000053 0.000229 0
-0.000060 0.000218 0
-0.000067 0.000206 0
-0.000074 0.000194 0
-0.000081 0.000181 0
-0.000087 0.000167 0
-0.000092 0.000153 0
-0.000098 0.000138 0
-0.000103 0.000122 0
-0.000108 0.000106 0
0.000000 0.000090 0
0.000000 0.000152 0
0.000077 0.000308 0
0.000068 0.000316 0
0.000058 0.000321 0
0.000047 0.000325 0
0.000037 0.000328 0
0.000026 0.000328 0
0.000015 0.000327 0
0.000004 0.000324 0
-0.000006 0.000320 0
-0.000017 0.000314 0
-0.000027 0.000307 0
-0.000037 0.000299 0
-0.000046 0.000289 0
-0.000055 0.000278 0
-0.000064 0.000266 0
-0.000073 0.000253 0
-0.000080 0.000239 0
-0.000088 0.000224 0
-0.000095 0.000209 0
-0.000102 0.000192 0
-0.000108 0.000175 0
-0.000115 0.000158 0
-0.000120 0.000139 0
-0.000126 0.000121 0
0.000000 0.000102 0
0.000000 0.000179 0
0.000086 0.000363 0
0.000074 0.000371 0
0.000063 0.000377 0
0.000050 0.000381 0
0.000038 0.000383 0
0.000025 0.000384 0
0.000013 0.000382 0
0.000000 0.000378 0
-0.000012 0.000372 0
-0.000024 0.000365 0
-0.000036 0.000356 0
-0.000047 0.000346 0
-0.000058 0.000334 0
-0.000068 0.000321 0
-0.000078 0.000306 0
-0.000087 0.000291 0
-0.000096 0.000274 0
-0.000105 0.000257 0
-0.000113 0.000238 0
-0.000120 0.000219 0
-0.000127 0.000199 0
-0.000134 0.000179 0
-0.000140 0.000158 0
-0.000146 0.000136 0
0.000000 0.000114 0
0.000000 0.000210 0
0.000095 0.000425 0
0.000082 0.000434 0
0.000068 0.000440 0
0.000053 0.000444 0
0.000039 0.000446 0
0.000024 0.000445 0
0.000009 0.000442 0
-0.000005 0.000437 0
-0.000019 0.000430 0
-0.000033 0.000421 0
-0.000046 0.000410 0
-0.000059 0.000398 0
-0.000071 0.000383 0
-0.000083 0.000368 0
-0.000094 0.000351 0
-0.000105 0.000332 0
-0.000115 0.000313 0
-0.000124 0.000292 0
-0.000133 0.000271 0
-0.000141 0.000248 0
-0.000149 0.000225 0
-0.000157 0.000201 0
-0.000163 0.000177 0
-0.000170 0.000151 0
0.000000 0.000126 0
0.000000 0.000245 0
0.000105 0.000494 0
0.000089 0.000504 0
0.000073 0.000510 0
0.000056 0.000514 0
0.000039 0.000515 0
0.000022 0.000514 0
0.000005 0.000510 0
-0.000012 0.000503 0
-0.000028 0.000494 0
-0.000044 0.000483 0
-0.000059 0.000470 0
-0.000074 0.000455 0
-0.000088 0.000438 0
-0.000101 0.000419 0
-0.000114 0.000399 0
-0.000125 0.000377 0
-0.000137 0.000354 0
-0.000147 0.000330 0
-0.000157 0.000305 0
-0.000166 0.000279 0
-0.000175 0.000253 0
-0.000183 0.000225 0
-0.000190 0.000197 0
-0.000197 0.000168 0
0.000000 0.000138 0
0.000000 0.000283 0
0.000116 0.000572 0
0.000097 0.000582 0
0.000078 0.000589 0
0.000058 0.000592 0
0.000038 0.000592 0
0.000018 0.000590 0
-0.000001 0.000584 0
-0.000021 0.000576 0
-0.000039 0.000565 0
-0.000058 0.000551 0
-0.000075 0.000535 0
-0.000092 0.000517 0
-0.000107 0.000497 0
-0.000122 0.000475 0
-0.000136 0.000451 0
-0.000149 0.000426 0
-0.000162 0.000400 0
-0.000173 0.000372 0
-0.000184 0.000343 0
-0.000194 0.000313 0
-0.000204 0.000282 0
-0.000213 0.000250 0
-0.000221 0.000218 0
-0.000229 0.000185 0
0.000000 0.000151 0
0.000000 0.000327 0
0.000128 0.000659 0
0.000106 0.000669 0
0.000083 0.000676 0
0.000060 0.000679 0
0.000036 0.000678 0
0.000013 0.000674 0
-0.000009 0.000667 0
-0.000032 0.000656 0
-0.000053 0.000642 0
-0.000074 0.000626 0
-0.000094 0.000607 0
-0.000112 0.000585 0
-0.000130 0.000562 0
-0.000147 0.000536 0
-0.000163 0.000508 0
-0.000177 0.000479 0
-0.000191 0.000448 0
-0.000204 0.000416 0
-0.000216 0.000383 0
-0.000227 0.000348 0
-0.000237 0.000313 0
-0.000247 0.000277 0
-0.000256 0.000240 0
-0.000264 0.000202 0
0.000000 0.000091 0
0.000000 0.000375 0
0.000140 0.000756 0
0.000114 0.000767 0
0.000087 0.000773 0
0.000060 0.000775 0
0.000033 0.000773 0
0.000007 0.000767 0
-0.000020 0.000758 0
-0.000045 0.000744 0
-0.000070 0.000728 0
-0.000093 0.000708 0
-0.000116 0.000685 0
-0.000137 0.000660 0
-0.000157 0.000632 0
-0.000176 0.000602 0
-0.000193 0.000570 0
-0.000210 0.000536 0
-0.000225 0.000500 0
-0.000239 0.000464 0
-0.000252 0.000426 0
-0.000264 0.000386 0
-0.000276 0.000346 0
-0.000286 0.000305 0
-0.000296 0.000263 0
-0.000305 0.000220 0
0.000000 0.000099 0
0.000000 0.000429 0
0.000153 0.000864 0
0.000122 0.000875 0
0.000091 0.000880 0
0.000060 0.000882 0
0.000028 0.000878 0
-0.000002 0.000870 0
-0.000033 0.000858 0
-0.000062 0.000841 0
-0.000090 0.000821 0
-0.000117 0.000798 0
-0.000142 0.000771 0
-0.000166 0.000741 0
-0.000189 0.000708 0
-0.000210 0.000673 0
-0.000229 0.000636 0
-0.000247 0.000597 0
-0.000264 0.000557 0
-0.000279 0.000514 0
-0.000294 0.000471 0
-0.000307 0.000426 0
-0.000319 0.000381 0
-0.000331 0.000334 0
-0.000341 0.000287 0
-0.000351 0.000238 0
0.000000 692150147622764767886908135067570642588137573968859145851963812264661167598603008150577247206977426453741014909103134941997757101085531617663032272764750232662461926171093693244561685425855250002430427991690632570601472.000000 0
0.000000 0.000488 0
0.000166 0.000984 0
0.000130 0.000994 0
0.000094 0.000999 0
0.000058 0.000999 0
0.000021 0.000994 0
-0.000014 0.000983 0
-0.000049 0.000968 0
-0.000082 0.000948 0
-0.000114 0.000924 0
-0.000144 0.000895 0
-0.000173 0.000864 0
-0.000200 0.000829 0
-0.000225 0.000791 0
-0.000248 0.000751 0
-0.000270 0.000708 0
-0.000290 0.000663 0
-0.000308 0.000617 0
-0.000325 0.000569 0
-0.000341 0.000519 0
-0.000355 0.000469 0
-0.000368 0.000417 0
-0.000381 0.000365 0
-0.000392 0.000311 0
-0.000403 0.000257 0
0.000000 -nan 0
0.000000 0.000555 0
0.000180 0.001116 0
0.000138 0.001127 0
0.000096 0.001131 0
0.000054 0.001129 0
0.000012 0.001121 0
-0.000029 0.001107 0
-0.000068 0.001088 0
-0.000107 0.001064 0
-0.000143 0.001035 0
-0.000177 0.001002 0
-0.000209 0.000965 0
-0.000239 0.000924 0
-0.000267 0.000880 0
-0.000293 0.000834 0
-0.000317 0.000785 0
-0.000339 0.000734 0
-0.000359 0.000681 0
-0.000377 0.000626 0
-0.000394 0.000570 0
-0.000409 0.000513 0
-0.000424 0.000455 0
-0.000437 0.000396 0
-0.000449 0.000336 0
-0.000460 0.000276 0
0.000000 0.000123 0
0.000000 0.000628 0
0.000193 0.001262 0
0.000145 0.001273 0
0.000096 0.001276 0
0.000048 0.001272 0
-0.000000 0.001261 0
-0.000047 0.001244 0
-0.000092 0.001220 0
-0.000136 0.001191 0
-0.000177 0.001157 0
-0.000215 0.001118 0
-0.000252 0.001074 0
-0.000285 0.001027 0
-0.000316 0.000976 0
-0.000345 0.000923 0
-0.000371 0.000867 0
-0.000394 0.000809 0
-0.000416 0.000749 0
-0.000436 0.000687 0
-0.000454 0.000624 0
-0.000471 0.000560 0
-0.000486 0.000495 0
-0.000500 0.000429 0
-0.000513 0.000362 0
-0.000525 0.000295 0
0.000000 0.000130 0
0.000000 0.000709 0
0.000207 0.001424 0
0.000151 0.001434 0
0.000095 0.001435 0
0.000039 0.001428 0
-0.000016 0.001414 0
-0.000070 0.001393 0
-0.000121 0.001364 0
-0.000171 0.001329 0
-0.000217 0.001289 0
-0.000260 0.001243 0
-0.000301 0.001192 0
-0.000338 0.001138 0
-0.000372 0.001080 0
-0.000403 0.001018 0
-0.000432 0.000955 0
-0.000457 0.000889 0
-0.000481 0.000821 0
-0.000502 0.000751 0
-0.000521 0.000681 0
-0.000539 0.000609 0
-0.000555 0.000536 0
-0.000570 0.000463 0
-0.000584 0.000389 0
-0.000597 0.000313 0
0.000000 0.000138 0
0.000000 0.000798 0
0.000221 0.001602 0
0.000156 0.001610 0
0.000091 0.001610 0
0.000026 0.001600 0
-0.000037 0.001582 0
-0.000098 0.001555 0
-0.000156 0.001521 0
-0.000212 0.001480 0
-0.000264 0.001432 0
-0.000313 0.001378 0
-0.000358 0.001320 0
-0.000399 0.001257 0
-0.000436 0.001190 0
-0.000470 0.001120 0
-0.000501 0.001048 0
-0.000529 0.000973 0
-0.000554 0.000897 0
-0.000576 0.000819 0
-0.000597 0.000740 0
-0.000615 0.000660 0
-0.000632 0.000579 0
-0.000648 0.000498 0
-0.000663 0.000415 0
-0.000676 0.000332 0
0.000000 0.000145 0
0.000000 0.000895 0
0.000234 0.001797 0
0.000159 0.001805 0
0.000084 0.001802 0
0.000010 0.001788 0
-0.000062 0.001765 0
-0.000132 0.001733 0
-0.000198 0.001691 0
-0.000261 0.001643 0
-0.000319 0.001587 0
-0.000373 0.001524 0
-0.000423 0.001457 0
-0.000468 0.001384 0
-0.000509 0.001308 0
-0.000546 0.001228 0
-0.000579 0.001146 0
-0.000609 0.001062 0
-0.000635 0.000976 0
-0.000659 0.000889 0
-0.000681 0.000801 0
-0.000700 0.000713 0
-0.000718 0.000623 0
-0.000734 0.000533 0
-0.000750 0.000442 0
-0.000764 0.000351 0
0.000000 0.000152 0
0.000000 0.001003 0
0.000246 0.002012 0
0.000160 0.002018 0
0.000074 0.002012 0
-0.000011 0.001994 0
-0.000093 0.001965 0
-0.000172 0.001926 0
-0.000247 0.001877 0
-0.000318 0.001819 0
-0.000383 0.001753 0
-0.000444 0.001681 0
-0.000499 0.001603 0
-0.000548 0.001520 0
-0.000593 0.001433 0
-0.000633 0.001343 0
-0.000668 0.001250 0
-0.000699 0.001156 0
-0.000727 0.001060 0
-0.000752 0.000963 0
-0.000774 0.000865 0
-0.000794 0.000767 0
-0.000812 0.000668 0
-0.000829 0.000569 0
-0.000845 0.000469 0
-0.000860 0.000369 0
0.000000 0.000159 0
0.000000 0.001121 0
0.000257 0.002248 0
0.000158 0.002251 0
0.000059 0.002242 0
-0.000038 0.002218 0
-0.000131 0.002183 0
-0.000221 0.002135 0
-0.000306 0.002077 0
-0.000385 0.002009 0
-0.000458 0.001933 0
-0.000525 0.001849 0
-0.000585 0.001760 0
-0.000639 0.001665 0
-0.000688 0.001566 0
-0.000730 0.001464 0
-0.000767 0.001360 0
-0.000800 0.001254 0
-0.000829 0.001146 0
-0.000854 0.001039 0
-0.000877 0.000930 0
-0.000897 0.000822 0
-0.000916 0.000713 0
-0.000933 0.000605 0
-0.000950 0.000496 0
-0.000965 0.000386 0
0.000000 0.000166 0
0.000000 0.001251 0
0.000267 0.002506 0
0.000153 0.002507 0
0.000040 0.002493 0
-0.000071 0.002463 0
-0.000178 0.002420 0
-0.000279 0.002363 0
-0.000375 0.002294 0
-0.000463 0.002214 0
-0.000545 0.002126 0
-0.000618 0.002029 0
-0.000684 0.001926 0
-0.000743 0.001818 0
-0.000795 0.001706 0
-0.000840 0.001591 0
-0.000879 0.001474 0
-0.000913 0.001355 0
-0.000943 0.001236 0
-0.000968 0.001117 0
-0.000991 0.000997 0
-0.001011 0.000878 0
-0.001030 0.000759 0
-0.001047 0.000641 0
-0.001064 0.000522 0
-0.001080 0.000403 0
0.000000 0.000172 0
0.000000 0.000000 0
0.000276 0.000000 0
0.000144 0.000000 0
0.000015 0.000000 0
-0.000112 0.000000 0
-0.000233 0.000000 0
-0.000348 0.000000 0
-0.000456 0.000000 0
-0.000555 0.000000 0
-0.000645 0.000000 0
-0.000726 0.000000 0
-0.000798 0.000000 0
-0.000861 0.000000 0
-0.000426 0.000000 0
-0.000449 0.000000 0
692150147622764767886908135067570642588137573968859145851963812264661167598603008150577247206977426453741014909103134941997757101085531617663032272764750232662461926171093693244561685425855250002430427991690632570601472.000000 0.000000 0
-nan 0.000000 0
-0.000501 0.000000 0
-0.000514 0.000000 0
-0.000525 0.000000 0
-0.000535 0.000000 0
-0.000545 0.000000 0
-0.000553 0.000000 0
-0.000562 0.000000 0
-0.000570 0.000000 0
0.000000 0.000000 0

CELL_DATA 625 
SCALARS pressure float 1 
LOOKUP_TABLE default 
-0.002231
-0.002385
-0.002527
-0.002657
-0.002774
-0.002875
-0.002960
-0.003030
-0.003082
-0.003118
-0.003136
-0.003137
-0.003120
-0.003087
-0.003036
-0.002969
-0.002887
-0.002788
-0.002674
-0.002546
-0.002403
-0.002247
-0.002078
-0.001896
-0.001701
-0.002480
-0.002644
-0.002795
-0.002933
-0.003055
-0.003160
-0.003249
-0.003320
-0.003372
-0.003407
-0.003422
-0.003419
-0.003397
-0.003357
-0.003299
-0.003223
-0.003131
-0.003021
-0.002895
-0.002754
-0.002598
-0.002427
-0.002242
-0.002043
-0.001832
-0.002825
-0.003002
-0.003164
-0.003311
-0.003440
-0.003551
-0.003643
-0.003715
-0.003767
-0.003799
-0.003810
-0.003800
-0.003771
-0.003721
-0.003652
-0.003563
-0.003456
-0.003331
-0.003188
-0.003029
-0.002854
-0.002662
-0.002456
-0.002236
-0.002002
-0.003274
-0.003468
-0.003644
-0.003802
-0.003940
-0.004057
-0.004152
-0.004225
-0.004276
-0.004303
-0.004308
-0.004289
-0.004249
-0.004186
-0.004101
-0.003996
-0.003870
-0.003724
-0.003559
-0.003376
-0.003175
-0.002958
-0.002724
-0.002475
-0.002212
-0.003843
-0.004056
-0.004249
-0.004420
-0.004567
-0.004691
-0.004790
-0.004863
-0.004910
-0.004932
-0.004927
-0.004897
-0.004841
-0.004761
-0.004657
-0.004529
-0.004379
-0.004207
-0.004014
-0.003801
-0.003568
-0.003318
-0.003050
-0.002765
-0.002464
-0.004545
-0.004781
-0.004993
-0.005179
-0.005338
-0.005468
-0.005570
-0.005642
-0.005684
-0.005697
-0.005680
-0.005634
-0.005560
-0.005457
-0.005328
-0.005172
-0.004992
-0.004787
-0.004559
-0.004309
-0.004038
-0.003746
-0.003436
-0.003107
-0.002761
-0.005399
-0.005661
-0.005894
-0.006097
-0.006267
-0.006405
-0.006508
-0.006578
-0.006613
-0.006614
-0.006581
-0.006515
-0.006416
-0.006286
-0.006126
-0.005936
-0.005718
-0.005474
-0.005203
-0.004908
-0.004589
-0.004249
-0.003887
-0.003506
-0.003106
-0.006423
-0.006714
-0.006972
-0.007192
-0.007375
-0.007519