# vtk DataFile Version 2.0
generated by CFD-lab course output (written by Tobias Neckel) 
ASCII

DATASET STRUCTURED_GRID
DIMENSIONS  26 26 1 
POINTS 676 float

0.000000 0.500000 0
0.020000 0.500000 0
0.040000 0.500000 0
0.060000 0.500000 0
0.080000 0.500000 0
0.100000 0.500000 0
0.120000 0.500000 0
0.140000 0.500000 0
0.160000 0.500000 0
0.180000 0.500000 0
0.200000 0.500000 0
0.220000 0.500000 0
0.240000 0.500000 0
0.260000 0.500000 0
0.280000 0.500000 0
0.300000 0.500000 0
0.320000 0.500000 0
0.340000 0.500000 0
0.360000 0.500000 0
0.380000 0.500000 0
0.400000 0.500000 0
0.420000 0.500000 0
0.440000 0.500000 0
0.460000 0.500000 0
0.480000 0.500000 0
0.500000 0.500000 0
0.000000 0.520000 0
0.020000 0.520000 0
0.040000 0.520000 0
0.060000 0.520000 0
0.080000 0.520000 0
0.100000 0.520000 0
0.120000 0.520000 0
0.140000 0.520000 0
0.160000 0.520000 0
0.180000 0.520000 0
0.200000 0.520000 0
0.220000 0.520000 0
0.240000 0.520000 0
0.260000 0.520000 0
0.280000 0.520000 0
0.300000 0.520000 0
0.320000 0.520000 0
0.340000 0.520000 0
0.360000 0.520000 0
0.380000 0.520000 0
0.400000 0.520000 0
0.420000 0.520000 0
0.440000 0.520000 0
0.460000 0.520000 0
0.480000 0.520000 0
0.500000 0.520000 0
0.000000 0.540000 0
0.020000 0.540000 0
0.040000 0.540000 0
0.060000 0.540000 0
0.080000 0.540000 0
0.100000 0.540000 0
0.120000 0.540000 0
0.140000 0.540000 0
0.160000 0.540000 0
0.180000 0.540000 0
0.200000 0.540000 0
0.220000 0.540000 0
0.240000 0.540000 0
0.260000 0.540000 0
0.280000 0.540000 0
0.300000 0.540000 0
0.320000 0.540000 0
0.340000 0.540000 0
0.360000 0.540000 0
0.380000 0.540000 0
0.400000 0.540000 0
0.420000 0.540000 0
0.440000 0.540000 0
0.460000 0.540000 0
0.480000 0.540000 0
0.500000 0.540000 0
0.000000 0.560000 0
0.020000 0.560000 0
0.040000 0.560000 0
0.060000 0.560000 0
0.080000 0.560000 0
0.100000 0.560000 0
0.120000 0.560000 0
0.140000 0.560000 0
0.160000 0.560000 0
0.180000 0.560000 0
0.200000 0.560000 0
0.220000 0.560000 0
0.240000 0.560000 0
0.260000 0.560000 0
0.280000 0.560000 0
0.300000 0.560000 0
0.320000 0.560000 0
0.340000 0.560000 0
0.360000 0.560000 0
0.380000 0.560000 0
0.400000 0.560000 0
0.420000 0.560000 0
0.440000 0.560000 0
0.460000 0.560000 0
0.480000 0.560000 0
0.500000 0.560000 0
0.000000 0.580000 0
0.020000 0.580000 0
0.040000 0.580000 0
0.060000 0.580000 0
0.080000 0.580000 0
0.100000 0.580000 0
0.120000 0.580000 0
0.140000 0.580000 0
0.160000 0.580000 0
0.180000 0.580000 0
0.200000 0.580000 0
0.220000 0.580000 0
0.240000 0.580000 0
0.260000 0.580000 0
0.280000 0.580000 0
0.300000 0.580000 0
0.320000 0.580000 0
0.340000 0.580000 0
0.360000 0.580000 0
0.380000 0.580000 0
0.400000 0.580000 0
0.420000 0.580000 0
0.440000 0.580000 0
0.460000 0.580000 0
0.480000 0.580000 0
0.500000 0.580000 0
0.000000 0.600000 0
0.020000 0.600000 0
0.040000 0.600000 0
0.060000 0.600000 0
0.080000 0.600000 0
0.100000 0.600000 0
0.120000 0.600000 0
0.140000 0.600000 0
0.160000 0.600000 0
0.180000 0.600000 0
0.200000 0.600000 0
0.220000 0.600000 0
0.240000 0.600000 0
0.260000 0.600000 0
0.280000 0.600000 0
0.300000 0.600000 0
0.320000 0.600000 0
0.340000 0.600000 0
0.360000 0.600000 0
0.380000 0.600000 0
0.400000 0.600000 0
0.420000 0.600000 0
0.440000 0.600000 0
0.460000 0.600000 0
0.480000 0.600000 0
0.500000 0.600000 0
0.000000 0.620000 0
0.020000 0.620000 0
0.040000 0.620000 0
0.060000 0.620000 0
0.080000 0.620000 0
0.100000 0.620000 0
0.120000 0.620000 0
0.140000 0.620000 0
0.160000 0.620000 0
0.180000 0.620000 0
0.200000 0.620000 0
0.220000 0.620000 0
0.240000 0.620000 0
0.260000 0.620000 0
0.280000 0.620000 0
0.300000 0.620000 0
0.320000 0.620000 0
0.340000 0.620000 0
0.360000 0.620000 0
0.380000 0.620000 0
0.400000 0.620000 0
0.420000 0.620000 0
0.440000 0.620000 0
0.460000 0.620000 0
0.480000 0.620000 0
0.500000 0.620000 0
0.000000 0.640000 0
0.020000 0.640000 0
0.040000 0.640000 0
0.060000 0.640000 0
0.080000 0.640000 0
0.100000 0.640000 0
0.120000 0.640000 0
0.140000 0.640000 0
0.160000 0.640000 0
0.180000 0.640000 0
0.200000 0.640000 0
0.220000 0.640000 0
0.240000 0.640000 0
0.260000 0.640000 0
0.280000 0.640000 0
0.300000 0.640000 0
0.320000 0.640000 0
0.340000 0.640000 0
0.360000 0.640000 0
0.380000 0.640000 0
0.400000 0.640000 0
0.420000 0.640000 0
0.440000 0.640000 0
0.460000 0.640000 0
0.480000 0.640000 0
0.500000 0.640000 0
0.000000 0.660000 0
0.020000 0.660000 0
0.040000 0.660000 0
0.060000 0.660000 0
0.080000 0.660000 0
0.100000 0.660000 0
0.120000 0.660000 0
0.140000 0.660000 0
0.160000 0.660000 0
0.180000 0.660000 0
0.200000 0.660000 0
0.220000 0.660000 0
0.240000 0.660000 0
0.260000 0.660000 0
0.280000 0.660000 0
0.300000 0.660000 0
0.320000 0.660000 0
0.340000 0.660000 0
0.360000 0.660000 0
0.380000 0.660000 0
0.400000 0.660000 0
0.420000 0.660000 0
0.440000 0.660000 0
0.460000 0.660000 0
0.480000 0.660000 0
0.500000 0.660000 0
0.000000 0.680000 0
0.020000 0.680000 0
0.040000 0.680000 0
0.060000 0.680000 0
0.080000 0.680000 0
0.100000 0.680000 0
0.120000 0.680000 0
0.140000 0.680000 0
0.160000 0.680000 0
0.180000 0.680000 0
0.200000 0.680000 0
0.220000 0.680000 0
0.240000 0.680000 0
0.260000 0.680000 0
0.280000 0.680000 0
0.300000 0.680000 0
0.320000 0.680000 0
0.340000 0.680000 0
0.360000 0.680000 0
0.380000 0.680000 0
0.400000 0.680000 0
0.420000 0.680000 0
0.440000 0.680000 0
0.460000 0.680000 0
0.480000 0.680000 0
0.500000 0.680000 0
0.000000 0.700000 0
0.020000 0.700000 0
0.040000 0.700000 0
0.060000 0.700000 0
0.080000 0.700000 0
0.100000 0.700000 0
0.120000 0.700000 0
0.140000 0.700000 0
0.160000 0.700000 0
0.180000 0.700000 0
0.200000 0.700000 0
0.220000 0.700000 0
0.240000 0.700000 0
0.260000 0.700000 0
0.280000 0.700000 0
0.300000 0.700000 0
0.320000 0.700000 0
0.340000 0.700000 0
0.360000 0.700000 0
0.380000 0.700000 0
0.400000 0.700000 0
0.420000 0.700000 0
0.440000 0.700000 0
0.460000 0.700000 0
0.480000 0.700000 0
0.500000 0.700000 0
0.000000 0.720000 0
0.020000 0.720000 0
0.040000 0.720000 0
0.060000 0.720000 0
0.080000 0.720000 0
0.100000 0.720000 0
0.120000 0.720000 0
0.140000 0.720000 0
0.160000 0.720000 0
0.180000 0.720000 0
0.200000 0.720000 0
0.220000 0.720000 0
0.240000 0.720000 0
0.260000 0.720000 0
0.280000 0.720000 0
0.300000 0.720000 0
0.320000 0.720000 0
0.340000 0.720000 0
0.360000 0.720000 0
0.380000 0.720000 0
0.400000 0.720000 0
0.420000 0.720000 0
0.440000 0.720000 0
0.460000 0.720000 0
0.480000 0.720000 0
0.500000 0.720000 0
0.000000 0.740000 0
0.020000 0.740000 0
0.040000 0.740000 0
0.060000 0.740000 0
0.080000 0.740000 0
0.100000 0.740000 0
0.120000 0.740000 0
0.140000 0.740000 0
0.160000 0.740000 0
0.180000 0.740000 0
0.200000 0.740000 0
0.220000 0.740000 0
0.240000 0.740000 0
0.260000 0.740000 0
0.280000 0.740000 0
0.300000 0.740000 0
0.320000 0.740000 0
0.340000 0.740000 0
0.360000 0.740000 0
0.380000 0.740000 0
0.400000 0.740000 0
0.420000 0.740000 0
0.440000 0.740000 0
0.460000 0.740000 0
0.480000 0.740000 0
0.500000 0.740000 0
0.000000 0.760000 0
0.020000 0.760000 0
0.040000 0.760000 0
0.060000 0.760000 0
0.080000 0.760000 0
0.100000 0.760000 0
0.120000 0.760000 0
0.140000 0.760000 0
0.160000 0.760000 0
0.180000 0.760000 0
0.200000 0.760000 0
0.220000 0.760000 0
0.240000 0.760000 0
0.260000 0.760000 0
0.280000 0.760000 0
0.300000 0.760000 0
0.320000 0.760000 0
0.340000 0.760000 0
0.360000 0.760000 0
0.380000 0.760000 0
0.400000 0.760000 0
0.420000 0.760000 0
0.440000 0.760000 0
0.460000 0.760000 0
0.480000 0.760000 0
0.500000 0.760000 0
0.000000 0.780000 0
0.020000 0.780000 0
0.040000 0.780000 0
0.060000 0.780000 0
0.080000 0.780000 0
0.100000 0.780000 0
0.120000 0.780000 0
0.140000 0.780000 0
0.160000 0.780000 0
0.180000 0.780000 0
0.200000 0.780000 0
0.220000 0.780000 0
0.240000 0.780000 0
0.260000 0.780000 0
0.280000 0.780000 0
0.300000 0.780000 0
0.320000 0.780000 0
0.340000 0.780000 0
0.360000 0.780000 0
0.380000 0.780000 0
0.400000 0.780000 0
0.420000 0.780000 0
0.440000 0.780000 0
0.460000 0.780000 0
0.480000 0.780000 0
0.500000 0.780000 0
0.000000 0.800000 0
0.020000 0.800000 0
0.040000 0.800000 0
0.060000 0.800000 0
0.080000 0.800000 0
0.100000 0.800000 0
0.120000 0.800000 0
0.140000 0.800000 0
0.160000 0.800000 0
0.180000 0.800000 0
0.200000 0.800000 0
0.220000 0.800000 0
0.240000 0.800000 0
0.260000 0.800000 0
0.280000 0.800000 0
0.300000 0.800000 0
0.320000 0.800000 0
0.340000 0.800000 0
0.360000 0.800000 0
0.380000 0.800000 0
0.400000 0.800000 0
0.420000 0.800000 0
0.440000 0.800000 0
0.460000 0.800000 0
0.480000 0.800000 0
0.500000 0.800000 0
0.000000 0.820000 0
0.020000 0.820000 0
0.040000 0.820000 0
0.060000 0.820000 0
0.080000 0.820000 0
0.100000 0.820000 0
0.120000 0.820000 0
0.140000 0.820000 0
0.160000 0.820000 0
0.180000 0.820000 0
0.200000 0.820000 0
0.220000 0.820000 0
0.240000 0.820000 0
0.260000 0.820000 0
0.280000 0.820000 0
0.300000 0.820000 0
0.320000 0.820000 0
0.340000 0.820000 0
0.360000 0.820000 0
0.380000 0.820000 0
0.400000 0.820000 0
0.420000 0.820000 0
0.440000 0.820000 0
0.460000 0.820000 0
0.480000 0.820000 0
0.500000 0.820000 0
0.000000 0.840000 0
0.020000 0.840000 0
0.040000 0.840000 0
0.060000 0.840000 0
0.080000 0.840000 0
0.100000 0.840000 0
0.120000 0.840000 0
0.140000 0.840000 0
0.160000 0.840000 0
0.180000 0.840000 0
0.200000 0.840000 0
0.220000 0.840000 0
0.240000 0.840000 0
0.260000 0.840000 0
0.280000 0.840000 0
0.300000 0.840000 0
0.320000 0.840000 0
0.340000 0.840000 0
0.360000 0.840000 0
0.380000 0.840000 0
0.400000 0.840000 0
0.420000 0.840000 0
0.440000 0.840000 0
0.460000 0.840000 0
0.480000 0.840000 0
0.500000 0.840000 0
0.000000 0.860000 0
0.020000 0.860000 0
0.040000 0.860000 0
0.060000 0.860000 0
0.080000 0.860000 0
0.100000 0.860000 0
0.120000 0.860000 0
0.140000 0.860000 0
0.160000 0.860000 0
0.180000 0.860000 0
0.200000 0.860000 0
0.220000 0.860000 0
0.240000 0.860000 0
0.260000 0.860000 0
0.280000 0.860000 0
0.300000 0.860000 0
0.320000 0.860000 0
0.340000 0.860000 0
0.360000 0.860000 0
0.380000 0.860000 0
0.400000 0.860000 0
0.420000 0.860000 0
0.440000 0.860000 0
0.460000 0.860000 0
0.480000 0.860000 0
0.500000 0.860000 0
0.000000 0.880000 0
0.020000 0.880000 0
0.040000 0.880000 0
0.060000 0.880000 0
0.080000 0.880000 0
0.100000 0.880000 0
0.120000 0.880000 0
0.140000 0.880000 0
0.160000 0.880000 0
0.180000 0.880000 0
0.200000 0.880000 0
0.220000 0.880000 0
0.240000 0.880000 0
0.260000 0.880000 0
0.280000 0.880000 0
0.300000 0.880000 0
0.320000 0.880000 0
0.340000 0.880000 0
0.360000 0.880000 0
0.380000 0.880000 0
0.400000 0.880000 0
0.420000 0.880000 0
0.440000 0.880000 0
0.460000 0.880000 0
0.480000 0.880000 0
0.500000 0.880000 0
0.000000 0.900000 0
0.020000 0.900000 0
0.040000 0.900000 0
0.060000 0.900000 0
0.080000 0.900000 0
0.100000 0.900000 0
0.120000 0.900000 0
0.140000 0.900000 0
0.160000 0.900000 0
0.180000 0.900000 0
0.200000 0.900000 0
0.220000 0.900000 0
0.240000 0.900000 0
0.260000 0.900000 0
0.280000 0.900000 0
0.300000 0.900000 0
0.320000 0.900000 0
0.340000 0.900000 0
0.360000 0.900000 0
0.380000 0.900000 0
0.400000 0.900000 0
0.420000 0.900000 0
0.440000 0.900000 0
0.460000 0.900000 0
0.480000 0.900000 0
0.500000 0.900000 0
0.000000 0.920000 0
0.020000 0.920000 0
0.040000 0.920000 0
0.060000 0.920000 0
0.080000 0.920000 0
0.100000 0.920000 0
0.120000 0.920000 0
0.140000 0.920000 0
0.160000 0.920000 0
0.180000 0.920000 0
0.200000 0.920000 0
0.220000 0.920000 0
0.240000 0.920000 0
0.260000 0.920000 0
0.280000 0.920000 0
0.300000 0.920000 0
0.320000 0.920000 0
0.340000 0.920000 0
0.360000 0.920000 0
0.380000 0.920000 0
0.400000 0.920000 0
0.420000 0.920000 0
0.440000 0.920000 0
0.460000 0.920000 0
0.480000 0.920000 0
0.500000 0.920000 0
0.000000 0.940000 0
0.020000 0.940000 0
0.040000 0.940000 0
0.060000 0.940000 0
0.080000 0.940000 0
0.100000 0.940000 0
0.120000 0.940000 0
0.140000 0.940000 0
0.160000 0.940000 0
0.180000 0.940000 0
0.200000 0.940000 0
0.220000 0.940000 0
0.240000 0.940000 0
0.260000 0.940000 0
0.280000 0.940000 0
0.300000 0.940000 0
0.320000 0.940000 0
0.340000 0.940000 0
0.360000 0.940000 0
0.380000 0.940000 0
0.400000 0.940000 0
0.420000 0.940000 0
0.440000 0.940000 0
0.460000 0.940000 0
0.480000 0.940000 0
0.500000 0.940000 0
0.000000 0.960000 0
0.020000 0.960000 0
0.040000 0.960000 0
0.060000 0.960000 0
0.080000 0.960000 0
0.100000 0.960000 0
0.120000 0.960000 0
0.140000 0.960000 0
0.160000 0.960000 0
0.180000 0.960000 0
0.200000 0.960000 0
0.220000 0.960000 0
0.240000 0.960000 0
0.260000 0.960000 0
0.280000 0.960000 0
0.300000 0.960000 0
0.320000 0.960000 0
0.340000 0.960000 0
0.360000 0.960000 0
0.380000 0.960000 0
0.400000 0.960000 0
0.420000 0.960000 0
0.440000 0.960000 0
0.460000 0.960000 0
0.480000 0.960000 0
0.500000 0.960000 0
0.000000 0.980000 0
0.020000 0.980000 0
0.040000 0.980000 0
0.060000 0.980000 0
0.080000 0.980000 0
0.100000 0.980000 0
0.120000 0.980000 0
0.140000 0.980000 0
0.160000 0.980000 0
0.180000 0.980000 0
0.200000 0.980000 0
0.220000 0.980000 0
0.240000 0.980000 0
0.260000 0.980000 0
0.280000 0.980000 0
0.300000 0.980000 0
0.320000 0.980000 0
0.340000 0.980000 0
0.360000 0.980000 0
0.380000 0.980000 0
0.400000 0.980000 0
0.420000 0.980000 0
0.440000 0.980000 0
0.460000 0.980000 0
0.480000 0.980000 0
0.500000 0.980000 0
0.000000 1.000000 0
0.020000 1.000000 0
0.040000 1.000000 0
0.060000 1.000000 0
0.080000 1.000000 0
0.100000 1.000000 0
0.120000 1.000000 0
0.140000 1.000000 0
0.160000 1.000000 0
0.180000 1.000000 0
0.200000 1.000000 0
0.220000 1.000000 0
0.240000 1.000000 0
0.260000 1.000000 0
0.280000 1.000000 0
0.300000 1.000000 0
0.320000 1.000000 0
0.340000 1.000000 0
0.360000 1.000000 0
0.380000 1.000000 0
0.400000 1.000000 0
0.420000 1.000000 0
0.440000 1.000000 0
0.460000 1.000000 0
0.480000 1.000000 0
0.500000 1.000000 0
POINT_DATA 676 

VECTORS velocity float
0.000000 0.000000 0
0.000276 0.000000 0
0.000144 0.000000 0
0.000015 0.000000 0
-0.000112 0.000000 0
-0.000233 0.000000 0
-0.000348 0.000000 0
-0.000456 0.000000 0
-0.000555 0.000000 0
-0.000645 0.000000 0
-0.000726 0.000000 0
-0.000798 0.000000 0
-0.000861 0.000000 0
-0.000490 0.000000 0
-0.000514 0.000000 0
-0.000535 0.000000 0
-nan 0.000000 0
-0.000567 0.000000 0
-0.000580 0.000000 0
-0.000591 0.000000 0
-0.000600 0.000000 0
-0.000609 0.000000 0
-0.000618 0.000000 0
-0.000626 0.000000 0
-0.000634 0.000000 0
0.000000 0.000000 0
0.000000 0.001745 0
0.000281 0.003491 0
0.000129 0.003482 0
-0.000020 0.003451 0
-0.000165 0.003400 0
-0.000304 0.003329 0
-0.000434 0.003241 0
-0.000555 0.003136 0
-0.000666 0.003017 0
-0.000767 0.002887 0
-0.000856 0.002746 0
-0.000934 0.002598 0
-0.001002 0.002444 0
-0.001061 0.002285 0
-0.001110 0.002123 0
-0.001152 0.001959 0
-0.001187 0.001794 0
-0.001217 0.001629 0
-0.001241 0.001465 0
-0.001263 0.001301 0
-0.001282 0.001138 0
-0.001299 0.000977 0
-0.001316 0.000815 0
-0.001332 0.000654 0
-0.001349 0.000494 0
0.000000 0.000332 0
0.000000 0.001915 0
0.000282 0.003830 0
0.000106 0.003817 0
-0.000066 0.003779 0
-0.000233 0.003717 0
-0.000391 0.003633 0
-0.000540 0.003529 0
-0.000676 0.003407 0
-0.000801 0.003271 0
-0.000912 0.003121 0
-0.001010 0.002962 0
-0.001096 0.002794 0
-0.001169 0.002621 0
-0.001231 0.002444 0
-0.001282 0.002264 0
-0.001325 0.002083 0
-0.001360 0.001902 0
-0.001389 0.001722 0
-0.001412 0.001544 0
-0.001432 0.001367 0
-0.001450 0.001192 0
-0.001466 0.001019 0
-0.001482 0.000847 0
-0.001498 0.000676 0
-0.001515 0.000505 0
0.000000 0.000334 0
0.000000 0.002103 0
0.000279 0.004204 0
0.000076 0.004185 0
-0.000122 0.004137 0
-0.000313 0.004062 0
-0.000494 0.003963 0
-0.000662 0.003841 0
-0.000816 0.003700 0
-0.000955 0.003542 0
-0.001078 0.003371 0
-0.001185 0.003190 0
-0.001277 0.003001 0
-0.001355 0.002806 0
-0.001420 0.002608 0
-0.001472 0.002409 0
-0.001515 0.002210 0
-0.001549 0.002012 0
-0.001576 0.001816 0
-0.001597 0.001622 0
-0.001615 0.001432 0
-0.001630 0.001244 0
-0.001644 0.001060 0
-0.001659 0.000877 0
-0.001674 0.000696 0
-0.001690 0.000515 0
0.000000 0.000335 0
0.000000 0.002310 0
0.000272 0.004615 0
0.000038 0.004589 0
-0.000191 0.004529 0
-0.000410 0.004440 0
-0.000615 0.004322 0
-0.000806 0.004179 0
-0.000978 0.004015 0
-0.001132 0.003833 0
-0.001267 0.003637 0
-0.001384 0.003430 0
-0.001482 0.003216 0
-0.001563 0.002998 0
-0.001630 0.002777 0
-0.001682 0.002556 0
-0.001723 0.002337 0
-0.001755 0.002120 0
-0.001778 0.001907 0
-0.001796 0.001699 0
-0.001810 0.001494 0
-0.001822 0.001294 0
-0.001834 0.001097 0
-0.001845 0.000904 0
-0.001859 0.000713 0
-0.001875 0.000523 0
0.000000 0.000334 0
0.000000 0.002538 0
0.000259 0.005068 0
-0.000011 0.005033 0
-0.000274 0.004960 0
-0.000524 0.004852 0
-0.000759 0.004712 0
-0.000973 0.004544 0
-0.001166 0.004353 0
-0.001336 0.004142 0
-0.001484 0.003918 0
-0.001609 0.003683 0
-0.001713 0.003441 0
-0.001797 0.003195 0
-0.001863 0.002949 0
-0.001914 0.002705 0
-0.001952 0.002464 0
-0.001979 0.002227 0
-0.001998 0.001996 0
-0.002011 0.001771 0
-0.002020 0.001552 0
-0.002027 0.001339 0
-0.002034 0.001131 0
-0.002042 0.000927 0
-0.002053 0.000727 0
-0.002068 0.000529 0
0.000000 0.000331 0
0.000000 0.002789 0
0.000240 0.005568 0
-0.000072 0.005522 0
-0.000375 0.005432 0
-0.000662 0.005302 0
-0.000928 0.005136 0
-0.001169 0.004938 0
-0.001384 0.004715 0
-0.001572 0.004472 0
-0.001731 0.004214 0
-0.001864 0.003946 0
-0.001972 0.003672 0
-0.002057 0.003397 0
-0.002122 0.003123 0
-0.002170 0.002853 0
-0.002202 0.002588 0
-0.002223 0.002330 0
-0.002235 0.002080 0
-0.002241 0.001838 0
-0.002243 0.001604 0
-0.002243 0.001378 0
-0.002244 0.001159 0
-0.002248 0.000946 0
-0.002256 0.000737 0
-0.002270 0.000531 0
0.000000 0.000326 0
0.000000 0.003068 0
0.000213 0.006121 0
-0.000149 0.006062 0
-0.000498 0.005952 0
-0.000826 0.005795 0
-0.001128 0.005597 0
-0.001400 0.005364 0
-0.001638 0.005103 0
-0.001843 0.004821 0
-0.002015 0.004524 0
-0.002154 0.004219 0
-0.002265 0.003909 0
-0.002349 0.003601 0
-0.002410 0.003296 0
-0.002451 0.002997 0
-0.002476 0.002707 0
-0.002488 0.002427 0
-0.002490 0.002157 0
-0.002487 0.001898 0
-0.002479 0.001649 0
-0.002471 0.001411 0
-0.002465 0.001181 0
-0.002463 0.000959 0
-0.002467 0.000743 0
-0.002478 0.000531 0
0.000000 0.000320 0
0.000000 0.003378 0
0.000176 0.006735 0
-0.000245 0.006661 0
-0.000648 0.006526 0
-0.001024 0.006336 0
-0.001366 0.006098 0
-0.001671 0.005822 0
-0.001934 0.005516 0
-0.002157 0.005189 0
-0.002339 0.004847 0
-0.002484 0.004499 0
-0.002594 0.004149 0
-0.002674 0.003803 0
-0.002728 0.003465 0
-0.002760 0.003136 0
-0.002774 0.002818 0
-0.002774 0.002514 0
-0.002764 0.002224 0
-0.002748 0.001947 0
-0.002729 0.001684 0
-0.002710 0.001433 0
-0.002695 0.001194 0
-0.002685 0.000965 0
-0.002683 0.000743 0
-0.002690 0.000527 0
0.000000 0.000312 0
0.000000 0.003725 0
0.000126 0.007421 0
-0.000364 0.007326 0
-0.000831 0.007160 0
-0.001262 0.006929 0
-0.001650 0.006644 0
-0.001991 0.006316 0
-0.002280 0.005956 0
-0.002520 0.005575 0
-0.002711 0.005181 0
-0.002858 0.004784 0
-0.002965 0.004389 0
-0.003037 0.004002 0
-0.003080 0.003626 0
-0.003099 0.003264 0
-0.003098 0.002918 0
-0.003083 0.002589 0
-0.003058 0.002278 0
-0.003026 0.001983 0
-0.002992 0.001706 0
-0.002959 0.001444 0
-0.002932 0.001197 0
-0.002912 0.000962 0
-0.002902 0.000737 0
-0.002906 0.000518 0
0.000000 0.000303 0
0.000000 0.004114 0
0.000060 0.008190 0
-0.000513 0.008070 0
-0.001055 0.007863 0
-0.001551 0.007581 0
-0.001991 0.007237 0
-0.002370 0.006846 0
-0.002686 0.006421 0
-0.002940 0.005977 0
-0.003137 0.005523 0
-0.003282 0.005070 0
-0.003381 0.004624 0
-0.003441 0.004191 0
-0.003468 0.003775 0
-0.003469 0.003379 0
-0.003450 0.003003 0
-0.003415 0.002648 0
-0.003370 0.002315 0
-0.003319 0.002003 0
-0.003267 0.001712 0
-0.003218 0.001440 0
-0.003175 0.001186 0
-0.003142 0.000948 0
-0.003123 0.000722 0
-0.003121 0.000505 0
0.000000 0.000292 0
0.000000 0.004554 0
-0.000026 0.009059 0
-0.000701 0.008905 0
-0.001332 0.008648 0
-0.001902 0.008301 0
-0.002401 0.007883 0
-0.002821 0.007414 0
-0.003162 0.006911 0
-0.003428 0.006391 0
-0.003626 0.005868 0
-0.003763 0.005351 0
-0.003848 0.004849 0
-0.003889 0.004367 0
-0.003895 0.003908 0
-0.003873 0.003474 0
-0.003830 0.003067 0
-0.003771 0.002686 0
-0.003702 0.002331 0
-0.003628 0.002002 0
-0.003554 0.001698 0
-0.003483 0.001418 0
-0.003421 0.001159 0
-0.003372 0.000920 0
-0.003341 0.000697 0
-0.003332 0.000486 0
0.000000 0.000279 0
0.000000 0.005056 0
-0.000139 0.010047 0
-0.000938 0.009850 0
-0.001677 0.009526 0
-0.002334 0.009095 0
-0.002897 0.008585 0
-0.003359 0.008019 0
-0.003723 0.007422 0
-0.003995 0.006813 0
-0.004186 0.006209 0
-0.004307 0.005621 0
-0.004370 0.005057 0
-0.004385 0.004521 0
-0.004362 0.004017 0
-0.004311 0.003545 0
-0.004238 0.003106 0
-0.004151 0.002698 0
-0.004053 0.002322 0
-0.003952 0.001977 0
-0.003850 0.001660 0
-0.003754 0.001373 0
-0.003669 0.001112 0
-0.003600 0.000876 0
-0.003553 0.000660 0
-0.003533 0.000459 0
0.000000 0.000265 0
0.000000 0.005634 0
-0.000288 0.011182 0
-0.001241 0.010927 0
-0.002111 0.010514 0
-0.002870 0.009975 0
-0.003502 0.009345 0
-0.004005 0.008659 0
-0.004386 0.007947 0
-0.004655 0.007234 0
-0.004828 0.006537 0
-0.004922 0.005869 0
-0.004952 0.005238 0
-0.004931 0.004646 0
-0.004872 0.004095 0
-0.004784 0.003584 0
-0.004676 0.003114 0
-0.004554 0.002680 0
-0.004423 0.002283 0
-0.004289 0.001921 0
-0.004156 0.001594 0
-0.004030 0.001300 0
-0.003915 0.001039 0
-0.003820 0.000809 0
-0.003752 0.000606 0
-0.003719 0.000423 0
0.000000 0.000167 0
0.000000 0.006307 0
-0.000486 0.012502 0
-0.001634 0.012166 0
-0.002664 0.011633 0
-0.003540 0.010949 0
-0.004246 0.010165 0
-0.004784 0.009328 0
-0.005169 0.008477 0
-0.005420 0.007641 0
-0.005561 0.006839 0
-0.005613 0.006084 0
-0.005596 0.005381 0
-0.005528 0.004731 0
-0.005423 0.004133 0
-0.005291 0.003586 0
-0.005141 0.003085 0
-0.004980 0.002627 0
-0.004812 0.002210 0
-0.004641 0.001832 0
-0.004471 0.001493 0
-0.004308 0.001194 0
-0.004157 0.000935 0
-0.004028 0.000715 0
-0.003932 0.000531 0
-0.003879 0.000374 0
0.000000 0.000151 0
0.000000 0.007105 0
-0.000754 0.014056 0
-0.002153 0.013606 0
-0.003379 0.012905 0
-0.004388 0.012026 0
-0.005166 0.011041 0
-0.005727 0.010015 0
-0.006097 0.008995 0
-0.006308 0.008016 0
-0.006394 0.007097 0
-0.006384 0.006248 0
-0.006305 0.005472 0
-0.006176 0.004765 0
-0.006014 0.004124 0
-0.005829 0.003542 0
-0.005632 0.003013 0
-0.005427 0.002533 0
-0.005217 0.002097 0
-0.005006 0.001704 0
-0.004795 0.001353 0
-0.004589 0.001048 0
-0.004393 0.000791 0
-0.004219 0.000584 0
-0.004083 0.000426 0
-0.004002 0.000309 0
0.000000 0.000130 0
0.000000 0.008066 0
-0.001123 0.015916 0
-0.002851 0.015299 0
-0.004319 0.014360 0
-0.005474 0.013212 0
-0.006314 0.011962 0
-0.006871 0.010697 0
-0.007194 0.009475 0
-0.007332 0.008333 0
-0.007334 0.007287 0
-0.007238 0.006342 0
-0.007076 0.005494 0
-0.006870 0.004736 0
-0.006640 0.004056 0
-0.006396 0.003445 0
-0.006145 0.002894 0
-0.005893 0.002395 0
-0.005640 0.001942 0
-0.005386 0.001532 0
-0.005130 0.001168 0
-0.004874 0.000853 0
-0.004622 0.000595 0
-0.004388 0.000403 0
-0.004194 0.000280 0
-0.004069 0.000220 0
0.000000 -nan 0
0.000000 0.009250 0
-0.001647 0.018190 0
-0.003818 0.017316 0
-0.005581 0.016026 0
-0.006885 0.014502 0
-0.007754 0.012901 0
-0.008261 0.011337 0
-0.008486 0.009878 0
-0.008505 0.008555 0
-0.008384 0.007378 0
-0.008171 0.006341 0
-0.007902 0.005429 0
-0.007604 0.004628 0
-0.007294 0.003920 0
-0.006983 0.003290 0
-0.006676 0.002723 0
-0.006375 0.002211 0
-0.006079 0.001743 0
-0.005783 0.001316 0
-0.005481 0.000932 0
-0.005170 0.000600 0
-0.004850 0.000333 0
-0.004534 0.000152 0
-0.004251 0.000072 0
-0.004053 0.000091 0
0.000000 0.000062 0
0.000000 0.010751 0
-0.002423 0.021035 0
-0.005199 0.019752 0
-0.007313 0.017930 0
-0.008737 0.015870 0
-0.009568 0.013805 0
-0.009942 0.011874 0
-0.009993 0.010145 0
-0.009831 0.008634 0
-0.009538 0.007331 0
-0.009172 0.006214 0
-0.008772 0.005255 0
-0.008364 0.004427 0
-0.007964 0.003706 0
-0.007580 0.003070 0
-0.007215 0.002500 0
-0.006868 0.001981 0
-0.006533 0.001502 0
-0.006201 0.001057 0
-0.005858 0.000646 0
-0.005492 0.000280 0
-0.005091 -0.000015 0
-0.004661 -0.000202 0
-0.004239 -0.000238 0
-0.003911 -0.000103 0
0.000000 0.000003 0
0.000000 0.012724 0
-0.003634 0.024705 0
-0.007248 0.022728 0
-0.009741 0.020072 0
-0.011193 0.017246 0
-0.011847 0.014576 0
-0.011957 0.012212 0
-0.011725 0.010195 0
-0.011300 0.008505 0
-0.010777 0.007099 0
-0.010219 0.005930 0
-0.009662 0.004950 0
-0.009129 0.004121 0
-0.008631 0.003409 0
-0.008172 0.002785 0
-0.007751 0.002226 0
-0.007364 0.001713 0
-0.007000 0.001229 0
-0.006645 0.000763 0
-0.006275 0.000313 0
-0.005863 -0.000110 0
-0.005377 -0.000472 0
-0.004796 -0.000707 0
-0.004151 -0.000718 0
-0.003571 -0.000423 0
0.000000 -0.000096 0
0.000000 0.015447 0
-0.005659 0.029614 0
-0.010428 0.026385 0
-0.013219 0.022384 0
-0.014457 0.018468 0
-0.014682 0.015041 0
-0.014322 0.012204 0
-0.013663 0.009918 0
-0.012878 0.008092 0
-0.012065 0.006632 0
-0.011277 0.005456 0
-0.010543 0.004496 0
-0.009875 0.003699 0
-0.009274 0.003023 0
-0.008741 0.002435 0
-0.008269 0.001907 0
-0.007852 0.001414 0
-0.007475 0.000936 0
-0.007118 0.000453 0
-0.006751 -0.000046 0
-0.006326 -0.000561 0
-0.005773 -0.001057 0
-0.005014 -0.001436 0
-0.004012 -0.001504 0
-0.002918 -0.001007 0
0.000000 -0.000293 0
0.000000 0.019456 0
-0.009378 0.036474 0
-0.015594 0.030817 0
-0.018259 0.024612 0
-0.018743 0.019202 0
-0.018111 0.014915 0
-0.016998 0.011646 0
-0.015739 0.009181 0
-0.014495 0.007314 0
-0.013339 0.005882 0
-0.012296 0.004766 0
-0.011373 0.003878 0
-0.010565 0.003155 0
-0.009865 0.002550 0
-0.009263 0.002025 0
-0.008749 0.001552 0
-0.008314 0.001102 0
-0.007944 0.000648 0
-0.007619 0.000161 0
-0.007302 -0.000391 0
-0.006932 -0.001033 0
-0.006391 -0.001761 0
-0.005490 -0.002476 0
-0.003982 -0.002855 0
-0.001811 -0.002214 0
0.000000 -0.000764 0
0.000000 0.025906 0
-0.017073 0.046556 0
-0.024316 0.035796 0
-0.025490 0.026046 0
-0.024154 0.018814 0
-0.022031 0.013771 0
-0.019831 0.010286 0
-0.017810 0.007847 0
-0.016037 0.006100 0
-0.014511 0.004817 0
-0.013208 0.003848 0
-0.012101 0.003096 0
-0.011162 0.002494 0
-0.010371 0.001995 0
-0.009710 0.001565 0
-0.009166 0.001173 0
-0.008728 0.000793 0
-0.008385 0.000393 0
-0.008125 -0.000068 0
-0.007924 -0.000645 0
-0.007724 -0.001417 0
-0.007386 -0.002477 0
-0.006588 -0.003855 0
-0.004633 -0.005225 0
-0.000379 -0.005086 0
0.000000 -0.002170 0
0.000000 0.037615 0
-0.035415 0.062144 0
-0.039115 0.039763 0
-0.035240 0.024963 0
-0.030362 0.016238 0
-0.026038 0.011067 0
-0.022497 0.007880 0
-0.019645 0.005819 0
-0.017344 0.004423 0
-0.015473 0.003437 0
-0.013939 0.002714 0
-0.012673 0.002163 0
-0.011626 0.001729 0
-0.010763 0.001372 0
-0.010057 0.001065 0
-0.009493 0.000784 0
-0.009061 0.000504 0
-0.008759 0.000198 0
-0.008590 -0.000180 0
-0.008561 -0.000705 0
-0.008669 -0.001515 0
-0.008859 -0.002875 0
-0.008858 -0.005240 0
-0.007600 -0.009107 0
-0.001136 -0.012971 0
0.000000 -0.007237 0
0.000000 0.062411 0
0.038706 0.087029 0
0.063503 0.036150 0
0.078997 0.017805 0
0.088977 0.010106 0
0.095727 0.006380 0
0.100517 0.004347 0
0.104059 0.003126 0
0.106766 0.002336 0
0.108889 0.001795 0
0.110586 0.001406 0
0.111959 0.001114 0
0.113078 0.000886 0
0.113990 0.000699 0
0.114723 0.000539 0
0.115298 0.000391 0
0.115720 0.000242 0
0.115984 0.000073 0
0.116068 -0.000146 0
0.115923 -0.000479 0
0.115450 -0.001065 0
0.114461 -0.002266 0
0.112597 -0.005124 0
0.109210 -0.012992 0
0.103446 -0.037735 0
0.000000 -0.028325 0
1.000000 0.000000 0
1.062956 0.000000 0
1.087708 0.000000 0
1.099369 0.000000 0
1.105768 0.000000 0
1.109721 0.000000 0
1.112384 0.000000 0
1.114293 0.000000 0
1.115725 0.000000 0
1.116833 0.000000 0
1.117710 0.000000 0
1.118416 0.000000 0
1.118989 0.000000 0
1.119452 0.000000 0
1.119824 0.000000 0
1.120113 0.000000 0
1.120322 0.000000 0
1.120446 0.000000 0
1.120470 0.000000 0
1.120359 0.000000 0
1.120034 0.000000 0
1.119321 0.000000 0
1.117779 0.000000 0
1.114191 0.000000 0
1.104766 0.000000 0
1.000000 0.000000 0

CELL_DATA 625 
SCALARS pressure float 1 
LOOKUP_TABLE default 
-0.094738
-0.095856
-0.096412
-0.096413
-0.095875
-0.094820
-0.093277
-0.091279
-0.088864
-0.086070
-0.082937
-0.079504
-0.075809
-0.071887
-0.067772
-0.063493
-0.059074
-0.054537
-0.049899
-0.045174
-0.040371
-0.035497
-0.030556
-0.025548
-0.020475
-0.108696
-0.109823
-0.110300
-0.110136
-0.109352
-0.107976
-0.106045
-0.103599
-0.100683
-0.097345
-0.093633
-0.089592
-0.085269
-0.080705
-0.075937
-0.070999
-0.065921
-0.060725
-0.055430
-0.050052
-0.044600
-0.039080
-0.033495
-0.027845
-0.022127
-0.124018
-0.125143
-0.125515
-0.125149
-0.124072
-0.122318
-0.119933
-0.116969
-0.113479
-0.109521
-0.105152
-0.100428
-0.095401
-0.090121
-0.084631
-0.078970
-0.073169
-0.067256
-0.061251
-0.055170
-0.049021
-0.042811
-0.036540
-0.030207
-0.023807
-0.140843
-0.141950
-0.142186
-0.141574
-0.140145
-0.137946
-0.135033
-0.131468
-0.127318
-0.122652
-0.117539
-0.112045
-0.106231
-0.100155
-0.093867
-0.087410
-0.080821
-0.074129
-0.067357
-0.060520
-0.053627
-0.046682
-0.039684
-0.032629
-0.025508
-0.159322
-0.160390
-0.160455
-0.159541
-0.157693
-0.154969
-0.151438
-0.147178
-0.142269
-0.136795
-0.130838
-0.124477
-0.117782
-0.110821
-0.103651
-0.096321
-0.088873
-0.081337
-0.073738
-0.066091
-0.058405
-0.050681
-0.042915
-0.035100
-0.027222
-0.179623
-0.180630
-0.180477
-0.179198
-0.176850
-0.173506
-0.169252
-0.164184
-0.158401
-0.152004
-0.145090
-0.137751
-0.130072
-0.122128
-0.113985
-0.105699
-0.097314
-0.088866
-0.080378
-0.071867
-0.063339
-0.054793
-0.046221
-0.037609
-0.028941
-0.201939
-0.202855
-0.202428
-0.200706
-0.197759
-0.193682
-0.188581
-0.182575
-0.175784
-0.168331
-0.160330
-0.151890
-0.143109
-0.134075
-0.124860
-0.115528
-0.106127
-0.096694
-0.087256
-0.077826
-0.068408
-0.058999
-0.049584
-0.040145
-0.030656
-0.226485
-0.227275
-0.226508
-0.224246
-0.220582
-0.215634
-0.209538
-0.202438
-0.194485
-0.185822
-0.176587
-0.166908
-0.156897
-0.146653
-0.136260
-0.125786
-0.115284
-0.104793
-0.094339
-0.083936
-0.073584
-0.063273
-0.052984
-0.042690
-0.032358
-0.253513
-0.254131
-0.252939
-0.250019
-0.245492
-0.239509
-0.232240
-0.223865
-0.214566