# vtk DataFile Version 2.0
generated by CFD-lab course output (written by Tobias Neckel) 
ASCII

DATASET STRUCTURED_GRID
DIMENSIONS  26 26 1 
POINTS 676 float

0.500000 0.500000 0
0.520000 0.500000 0
0.540000 0.500000 0
0.560000 0.500000 0
0.580000 0.500000 0
0.600000 0.500000 0
0.620000 0.500000 0
0.640000 0.500000 0
0.660000 0.500000 0
0.680000 0.500000 0
0.700000 0.500000 0
0.720000 0.500000 0
0.740000 0.500000 0
0.760000 0.500000 0
0.780000 0.500000 0
0.800000 0.500000 0
0.820000 0.500000 0
0.840000 0.500000 0
0.860000 0.500000 0
0.880000 0.500000 0
0.900000 0.500000 0
0.920000 0.500000 0
0.940000 0.500000 0
0.960000 0.500000 0
0.980000 0.500000 0
1.000000 0.500000 0
0.500000 0.520000 0
0.520000 0.520000 0
0.540000 0.520000 0
0.560000 0.520000 0
0.580000 0.520000 0
0.600000 0.520000 0
0.620000 0.520000 0
0.640000 0.520000 0
0.660000 0.520000 0
0.680000 0.520000 0
0.700000 0.520000 0
0.720000 0.520000 0
0.740000 0.520000 0
0.760000 0.520000 0
0.780000 0.520000 0
0.800000 0.520000 0
0.820000 0.520000 0
0.840000 0.520000 0
0.860000 0.520000 0
0.880000 0.520000 0
0.900000 0.520000 0
0.920000 0.520000 0
0.940000 0.520000 0
0.960000 0.520000 0
0.980000 0.520000 0
1.000000 0.520000 0
0.500000 0.540000 0
0.520000 0.540000 0
0.540000 0.540000 0
0.560000 0.540000 0
0.580000 0.540000 0
0.600000 0.540000 0
0.620000 0.540000 0
0.640000 0.540000 0
0.660000 0.540000 0
0.680000 0.540000 0
0.700000 0.540000 0
0.720000 0.540000 0
0.740000 0.540000 0
0.760000 0.540000 0
0.780000 0.540000 0
0.800000 0.540000 0
0.820000 0.540000 0
0.840000 0.540000 0
0.860000 0.540000 0
0.880000 0.540000 0
0.900000 0.540000 0
0.920000 0.540000 0
0.940000 0.540000 0
0.960000 0.540000 0
0.980000 0.540000 0
1.000000 0.540000 0
0.500000 0.560000 0
0.520000 0.560000 0
0.540000 0.560000 0
0.560000 0.560000 0
0.580000 0.560000 0
0.600000 0.560000 0
0.620000 0.560000 0
0.640000 0.560000 0
0.660000 0.560000 0
0.680000 0.560000 0
0.700000 0.560000 0
0.720000 0.560000 0
0.740000 0.560000 0
0.760000 0.560000 0
0.780000 0.560000 0
0.800000 0.560000 0
0.820000 0.560000 0
0.840000 0.560000 0
0.860000 0.560000 0
0.880000 0.560000 0
0.900000 0.560000 0
0.920000 0.560000 0
0.940000 0.560000 0
0.960000 0.560000 0
0.980000 0.560000 0
1.000000 0.560000 0
0.500000 0.580000 0
0.520000 0.580000 0
0.540000 0.580000 0
0.560000 0.580000 0
0.580000 0.580000 0
0.600000 0.580000 0
0.620000 0.580000 0
0.640000 0.580000 0
0.660000 0.580000 0
0.680000 0.580000 0
0.700000 0.580000 0
0.720000 0.580000 0
0.740000 0.580000 0
0.760000 0.580000 0
0.780000 0.580000 0
0.800000 0.580000 0
0.820000 0.580000 0
0.840000 0.580000 0
0.860000 0.580000 0
0.880000 0.580000 0
0.900000 0.580000 0
0.920000 0.580000 0
0.940000 0.580000 0
0.960000 0.580000 0
0.980000 0.580000 0
1.000000 0.580000 0
0.500000 0.600000 0
0.520000 0.600000 0
0.540000 0.600000 0
0.560000 0.600000 0
0.580000 0.600000 0
0.600000 0.600000 0
0.620000 0.600000 0
0.640000 0.600000 0
0.660000 0.600000 0
0.680000 0.600000 0
0.700000 0.600000 0
0.720000 0.600000 0
0.740000 0.600000 0
0.760000 0.600000 0
0.780000 0.600000 0
0.800000 0.600000 0
0.820000 0.600000 0
0.840000 0.600000 0
0.860000 0.600000 0
0.880000 0.600000 0
0.900000 0.600000 0
0.920000 0.600000 0
0.940000 0.600000 0
0.960000 0.600000 0
0.980000 0.600000 0
1.000000 0.600000 0
0.500000 0.620000 0
0.520000 0.620000 0
0.540000 0.620000 0
0.560000 0.620000 0
0.580000 0.620000 0
0.600000 0.620000 0
0.620000 0.620000 0
0.640000 0.620000 0
0.660000 0.620000 0
0.680000 0.620000 0
0.700000 0.620000 0
0.720000 0.620000 0
0.740000 0.620000 0
0.760000 0.620000 0
0.780000 0.620000 0
0.800000 0.620000 0
0.820000 0.620000 0
0.840000 0.620000 0
0.860000 0.620000 0
0.880000 0.620000 0
0.900000 0.620000 0
0.920000 0.620000 0
0.940000 0.620000 0
0.960000 0.620000 0
0.980000 0.620000 0
1.000000 0.620000 0
0.500000 0.640000 0
0.520000 0.640000 0
0.540000 0.640000 0
0.560000 0.640000 0
0.580000 0.640000 0
0.600000 0.640000 0
0.620000 0.640000 0
0.640000 0.640000 0
0.660000 0.640000 0
0.680000 0.640000 0
0.700000 0.640000 0
0.720000 0.640000 0
0.740000 0.640000 0
0.760000 0.640000 0
0.780000 0.640000 0
0.800000 0.640000 0
0.820000 0.640000 0
0.840000 0.640000 0
0.860000 0.640000 0
0.880000 0.640000 0
0.900000 0.640000 0
0.920000 0.640000 0
0.940000 0.640000 0
0.960000 0.640000 0
0.980000 0.640000 0
1.000000 0.640000 0
0.500000 0.660000 0
0.520000 0.660000 0
0.540000 0.660000 0
0.560000 0.660000 0
0.580000 0.660000 0
0.600000 0.660000 0
0.620000 0.660000 0
0.640000 0.660000 0
0.660000 0.660000 0
0.680000 0.660000 0
0.700000 0.660000 0
0.720000 0.660000 0
0.740000 0.660000 0
0.760000 0.660000 0
0.780000 0.660000 0
0.800000 0.660000 0
0.820000 0.660000 0
0.840000 0.660000 0
0.860000 0.660000 0
0.880000 0.660000 0
0.900000 0.660000 0
0.920000 0.660000 0
0.940000 0.660000 0
0.960000 0.660000 0
0.980000 0.660000 0
1.000000 0.660000 0
0.500000 0.680000 0
0.520000 0.680000 0
0.540000 0.680000 0
0.560000 0.680000 0
0.580000 0.680000 0
0.600000 0.680000 0
0.620000 0.680000 0
0.640000 0.680000 0
0.660000 0.680000 0
0.680000 0.680000 0
0.700000 0.680000 0
0.720000 0.680000 0
0.740000 0.680000 0
0.760000 0.680000 0
0.780000 0.680000 0
0.800000 0.680000 0
0.820000 0.680000 0
0.840000 0.680000 0
0.860000 0.680000 0
0.880000 0.680000 0
0.900000 0.680000 0
0.920000 0.680000 0
0.940000 0.680000 0
0.960000 0.680000 0
0.980000 0.680000 0
1.000000 0.680000 0
0.500000 0.700000 0
0.520000 0.700000 0
0.540000 0.700000 0
0.560000 0.700000 0
0.580000 0.700000 0
0.600000 0.700000 0
0.620000 0.700000 0
0.640000 0.700000 0
0.660000 0.700000 0
0.680000 0.700000 0
0.700000 0.700000 0
0.720000 0.700000 0
0.740000 0.700000 0
0.760000 0.700000 0
0.780000 0.700000 0
0.800000 0.700000 0
0.820000 0.700000 0
0.840000 0.700000 0
0.860000 0.700000 0
0.880000 0.700000 0
0.900000 0.700000 0
0.920000 0.700000 0
0.940000 0.700000 0
0.960000 0.700000 0
0.980000 0.700000 0
1.000000 0.700000 0
0.500000 0.720000 0
0.520000 0.720000 0
0.540000 0.720000 0
0.560000 0.720000 0
0.580000 0.720000 0
0.600000 0.720000 0
0.620000 0.720000 0
0.640000 0.720000 0
0.660000 0.720000 0
0.680000 0.720000 0
0.700000 0.720000 0
0.720000 0.720000 0
0.740000 0.720000 0
0.760000 0.720000 0
0.780000 0.720000 0
0.800000 0.720000 0
0.820000 0.720000 0
0.840000 0.720000 0
0.860000 0.720000 0
0.880000 0.720000 0
0.900000 0.720000 0
0.920000 0.720000 0
0.940000 0.720000 0
0.960000 0.720000 0
0.980000 0.720000 0
1.000000 0.720000 0
0.500000 0.740000 0
0.520000 0.740000 0
0.540000 0.740000 0
0.560000 0.740000 0
0.580000 0.740000 0
0.600000 0.740000 0
0.620000 0.740000 0
0.640000 0.740000 0
0.660000 0.740000 0
0.680000 0.740000 0
0.700000 0.740000 0
0.720000 0.740000 0
0.740000 0.740000 0
0.760000 0.740000 0
0.780000 0.740000 0
0.800000 0.740000 0
0.820000 0.740000 0
0.840000 0.740000 0
0.860000 0.740000 0
0.880000 0.740000 0
0.900000 0.740000 0
0.920000 0.740000 0
0.940000 0.740000 0
0.960000 0.740000 0
0.980000 0.740000 0
1.000000 0.740000 0
0.500000 0.760000 0
0.520000 0.760000 0
0.540000 0.760000 0
0.560000 0.760000 0
0.580000 0.760000 0
0.600000 0.760000 0
0.620000 0.760000 0
0.640000 0.760000 0
0.660000 0.760000 0
0.680000 0.760000 0
0.700000 0.760000 0
0.720000 0.760000 0
0.740000 0.760000 0
0.760000 0.760000 0
0.780000 0.760000 0
0.800000 0.760000 0
0.820000 0.760000 0
0.840000 0.760000 0
0.860000 0.760000 0
0.880000 0.760000 0
0.900000 0.760000 0
0.920000 0.760000 0
0.940000 0.760000 0
0.960000 0.760000 0
0.980000 0.760000 0
1.000000 0.760000 0
0.500000 0.780000 0
0.520000 0.780000 0
0.540000 0.780000 0
0.560000 0.780000 0
0.580000 0.780000 0
0.600000 0.780000 0
0.620000 0.780000 0
0.640000 0.780000 0
0.660000 0.780000 0
0.680000 0.780000 0
0.700000 0.780000 0
0.720000 0.780000 0
0.740000 0.780000 0
0.760000 0.780000 0
0.780000 0.780000 0
0.800000 0.780000 0
0.820000 0.780000 0
0.840000 0.780000 0
0.860000 0.780000 0
0.880000 0.780000 0
0.900000 0.780000 0
0.920000 0.780000 0
0.940000 0.780000 0
0.960000 0.780000 0
0.980000 0.780000 0
1.000000 0.780000 0
0.500000 0.800000 0
0.520000 0.800000 0
0.540000 0.800000 0
0.560000 0.800000 0
0.580000 0.800000 0
0.600000 0.800000 0
0.620000 0.800000 0
0.640000 0.800000 0
0.660000 0.800000 0
0.680000 0.800000 0
0.700000 0.800000 0
0.720000 0.800000 0
0.740000 0.800000 0
0.760000 0.800000 0
0.780000 0.800000 0
0.800000 0.800000 0
0.820000 0.800000 0
0.840000 0.800000 0
0.860000 0.800000 0
0.880000 0.800000 0
0.900000 0.800000 0
0.920000 0.800000 0
0.940000 0.800000 0
0.960000 0.800000 0
0.980000 0.800000 0
1.000000 0.800000 0
0.500000 0.820000 0
0.520000 0.820000 0
0.540000 0.820000 0
0.560000 0.820000 0
0.580000 0.820000 0
0.600000 0.820000 0
0.620000 0.820000 0
0.640000 0.820000 0
0.660000 0.820000 0
0.680000 0.820000 0
0.700000 0.820000 0
0.720000 0.820000 0
0.740000 0.820000 0
0.760000 0.820000 0
0.780000 0.820000 0
0.800000 0.820000 0
0.820000 0.820000 0
0.840000 0.820000 0
0.860000 0.820000 0
0.880000 0.820000 0
0.900000 0.820000 0
0.920000 0.820000 0
0.940000 0.820000 0
0.960000 0.820000 0
0.980000 0.820000 0
1.000000 0.820000 0
0.500000 0.840000 0
0.520000 0.840000 0
0.540000 0.840000 0
0.560000 0.840000 0
0.580000 0.840000 0
0.600000 0.840000 0
0.620000 0.840000 0
0.640000 0.840000 0
0.660000 0.840000 0
0.680000 0.840000 0
0.700000 0.840000 0
0.720000 0.840000 0
0.740000 0.840000 0
0.760000 0.840000 0
0.780000 0.840000 0
0.800000 0.840000 0
0.820000 0.840000 0
0.840000 0.840000 0
0.860000 0.840000 0
0.880000 0.840000 0
0.900000 0.840000 0
0.920000 0.840000 0
0.940000 0.840000 0
0.960000 0.840000 0
0.980000 0.840000 0
1.000000 0.840000 0
0.500000 0.860000 0
0.520000 0.860000 0
0.540000 0.860000 0
0.560000 0.860000 0
0.580000 0.860000 0
0.600000 0.860000 0
0.620000 0.860000 0
0.640000 0.860000 0
0.660000 0.860000 0
0.680000 0.860000 0
0.700000 0.860000 0
0.720000 0.860000 0
0.740000 0.860000 0
0.760000 0.860000 0
0.780000 0.860000 0
0.800000 0.860000 0
0.820000 0.860000 0
0.840000 0.860000 0
0.860000 0.860000 0
0.880000 0.860000 0
0.900000 0.860000 0
0.920000 0.860000 0
0.940000 0.860000 0
0.960000 0.860000 0
0.980000 0.860000 0
1.000000 0.860000 0
0.500000 0.880000 0
0.520000 0.880000 0
0.540000 0.880000 0
0.560000 0.880000 0
0.580000 0.880000 0
0.600000 0.880000 0
0.620000 0.880000 0
0.640000 0.880000 0
0.660000 0.880000 0
0.680000 0.880000 0
0.700000 0.880000 0
0.720000 0.880000 0
0.740000 0.880000 0
0.760000 0.880000 0
0.780000 0.880000 0
0.800000 0.880000 0
0.820000 0.880000 0
0.840000 0.880000 0
0.860000 0.880000 0
0.880000 0.880000 0
0.900000 0.880000 0
0.920000 0.880000 0
0.940000 0.880000 0
0.960000 0.880000 0
0.980000 0.880000 0
1.000000 0.880000 0
0.500000 0.900000 0
0.520000 0.900000 0
0.540000 0.900000 0
0.560000 0.900000 0
0.580000 0.900000 0
0.600000 0.900000 0
0.620000 0.900000 0
0.640000 0.900000 0
0.660000 0.900000 0
0.680000 0.900000 0
0.700000 0.900000 0
0.720000 0.900000 0
0.740000 0.900000 0
0.760000 0.900000 0
0.780000 0.900000 0
0.800000 0.900000 0
0.820000 0.900000 0
0.840000 0.900000 0
0.860000 0.900000 0
0.880000 0.900000 0
0.900000 0.900000 0
0.920000 0.900000 0
0.940000 0.900000 0
0.960000 0.900000 0
0.980000 0.900000 0
1.000000 0.900000 0
0.500000 0.920000 0
0.520000 0.920000 0
0.540000 0.920000 0
0.560000 0.920000 0
0.580000 0.920000 0
0.600000 0.920000 0
0.620000 0.920000 0
0.640000 0.920000 0
0.660000 0.920000 0
0.680000 0.920000 0
0.700000 0.920000 0
0.720000 0.920000 0
0.740000 0.920000 0
0.760000 0.920000 0
0.780000 0.920000 0
0.800000 0.920000 0
0.820000 0.920000 0
0.840000 0.920000 0
0.860000 0.920000 0
0.880000 0.920000 0
0.900000 0.920000 0
0.920000 0.920000 0
0.940000 0.920000 0
0.960000 0.920000 0
0.980000 0.920000 0
1.000000 0.920000 0
0.500000 0.940000 0
0.520000 0.940000 0
0.540000 0.940000 0
0.560000 0.940000 0
0.580000 0.940000 0
0.600000 0.940000 0
0.620000 0.940000 0
0.640000 0.940000 0
0.660000 0.940000 0
0.680000 0.940000 0
0.700000 0.940000 0
0.720000 0.940000 0
0.740000 0.940000 0
0.760000 0.940000 0
0.780000 0.940000 0
0.800000 0.940000 0
0.820000 0.940000 0
0.840000 0.940000 0
0.860000 0.940000 0
0.880000 0.940000 0
0.900000 0.940000 0
0.920000 0.940000 0
0.940000 0.940000 0
0.960000 0.940000 0
0.980000 0.940000 0
1.000000 0.940000 0
0.500000 0.960000 0
0.520000 0.960000 0
0.540000 0.960000 0
0.560000 0.960000 0
0.580000 0.960000 0
0.600000 0.960000 0
0.620000 0.960000 0
0.640000 0.960000 0
0.660000 0.960000 0
0.680000 0.960000 0
0.700000 0.960000 0
0.720000 0.960000 0
0.740000 0.960000 0
0.760000 0.960000 0
0.780000 0.960000 0
0.800000 0.960000 0
0.820000 0.960000 0
0.840000 0.960000 0
0.860000 0.960000 0
0.880000 0.960000 0
0.900000 0.960000 0
0.920000 0.960000 0
0.940000 0.960000 0
0.960000 0.960000 0
0.980000 0.960000 0
1.000000 0.960000 0
0.500000 0.980000 0
0.520000 0.980000 0
0.540000 0.980000 0
0.560000 0.980000 0
0.580000 0.980000 0
0.600000 0.980000 0
0.620000 0.980000 0
0.640000 0.980000 0
0.660000 0.980000 0
0.680000 0.980000 0
0.700000 0.980000 0
0.720000 0.980000 0
0.740000 0.980000 0
0.760000 0.980000 0
0.780000 0.980000 0
0.800000 0.980000 0
0.820000 0.980000 0
0.840000 0.980000 0
0.860000 0.980000 0
0.880000 0.980000 0
0.900000 0.980000 0
0.920000 0.980000 0
0.940000 0.980000 0
0.960000 0.980000 0
0.980000 0.980000 0
1.000000 0.980000 0
0.500000 1.000000 0
0.520000 1.000000 0
0.540000 1.000000 0
0.560000 1.000000 0
0.580000 1.000000 0
0.600000 1.000000 0
0.620000 1.000000 0
0.640000 1.000000 0
0.660000 1.000000 0
0.680000 1.000000 0
0.700000 1.000000 0
0.720000 1.000000 0
0.740000 1.000000 0
0.760000 1.000000 0
0.780000 1.000000 0
0.800000 1.000000 0
0.820000 1.000000 0
0.840000 1.000000 0
0.860000 1.000000 0
0.880000 1.000000 0
0.900000 1.000000 0
0.920000 1.000000 0
0.940000 1.000000 0
0.960000 1.000000 0
0.980000 1.000000 0
1.000000 1.000000 0
POINT_DATA 676 

VECTORS velocity float
0.000000 0.000000 0
-0.001187 0.000000 0
-0.001205 0.000000 0
-0.001222 0.000000 0
-0.001239 0.000000 0
-0.001254 0.000000 0
-0.001267 0.000000 0
-0.001277 0.000000 0
-0.001282 0.000000 0
-0.001283 0.000000 0
-0.001277 0.000000 0
-0.001263 0.000000 0
-0.001241 0.000000 0
-0.000642 0.000000 0
-0.000620 0.000000 0
-0.000592 0.000000 0
-nan 0.000000 0
-0.000518 0.000000 0
-0.000471 0.000000 0
-0.000418 0.000000 0
-0.000359 0.000000 0
-0.000295 0.000000 0
-0.000226 0.000000 0
-0.000153 0.000000 0
-0.000078 0.000000 0
0.000000 0.000000 0
0.000000 0.000332 0
-0.001336 0.000169 0
-0.001355 0.000003 0
-0.001374 -0.000165 0
-0.001393 -0.000335 0
-0.001411 -0.000508 0
-0.001427 -0.000683 0
-0.001439 -0.000862 0
-0.001447 -0.001042 0
-0.001449 -0.001225 0
-0.001444 -0.001409 0
-0.001431 -0.001594 0
-0.001408 -0.001779 0
-0.001374 -0.001961 0
-0.001328 -0.002140 0
-0.001270 -0.002314 0
-0.001198 -0.002481 0
-0.001112 -0.002638 0
-0.001012 -0.002784 0
-0.000899 -0.002917 0
-0.000773 -0.003033 0
-0.000635 -0.003132 0
-0.000487 -0.003211 0
-0.000330 -0.003268 0
-0.000167 -0.003303 0
0.000000 -0.001657 0
0.000000 0.000334 0
-0.001506 0.000161 0
-0.001527 -0.000015 0
-0.001549 -0.000193 0
-0.001570 -0.000374 0
-0.001591 -0.000558 0
-0.001610 -0.000746 0
-0.001625 -0.000937 0
-0.001636 -0.001132 0
-0.001641 -0.001330 0
-0.001637 -0.001530 0
-0.001624 -0.001732 0
-0.001601 -0.001934 0
-0.001565 -0.002135 0
-0.001515 -0.002333 0
-0.001450 -0.002526 0
-0.001370 -0.002712 0
-0.001274 -0.002889 0
-0.001161 -0.003053 0
-0.001032 -0.003202 0
-0.000888 -0.003334 0
-0.000730 -0.003446 0
-0.000560 -0.003535 0
-0.000380 -0.003601 0
-0.000192 -0.003641 0
0.000000 -0.001827 0
0.000000 0.000335 0
-0.001685 0.000152 0
-0.001709 -0.000033 0
-0.001733 -0.000222 0
-0.001759 -0.000414 0
-0.001783 -0.000610 0
-0.001806 -0.000810 0
-0.001826 -0.001015 0
-0.001840 -0.001225 0
-0.001848 -0.001439 0
-0.001847 -0.001656 0
-0.001836 -0.001876 0
-0.001813 -0.002098 0
-0.001775 -0.002320 0
-0.001722 -0.002539 0
-0.001651 -0.002754 0
-0.001563 -0.002961 0
-0.001455 -0.003159 0
-0.001328 -0.003344 0
-0.001183 -0.003513 0
-0.001019 -0.003663 0
-0.000838 -0.003790 0
-0.000643 -0.003892 0
-0.000437 -0.003967 0
-0.000221 -0.004013 0
0.000000 -0.002014 0
0.000000 0.000334 0
-0.001874 0.000142 0
-0.001900 -0.000053 0
-0.001928 -0.000251 0
-0.001958 -0.000454 0
-0.001987 -0.000661 0
-0.002016 -0.000875 0
-0.002041 -0.001094 0
-0.002060 -0.001319 0
-0.002073 -0.001550 0
-0.002076 -0.001786 0
-0.002068 -0.002026 0
-0.002046 -0.002269 0
-0.002008 -0.002513 0
-0.001952 -0.002756 0
-0.001876 -0.002995 0
-0.001779 -0.003228 0
-0.001660 -0.003450 0
-0.001518 -0.003659 0
-0.001354 -0.003851 0
-0.001168 -0.004021 0
-0.000962 -0.004167 0
-0.000739 -0.004284 0
-0.000502 -0.004370 0
-0.000254 -0.004423 0
0.000000 -0.002220 0
0.000000 0.000331 0
-0.002072 0.000131 0
-0.002101 -0.000073 0
-0.002133 -0.000281 0
-0.002168 -0.000493 0
-0.002204 -0.000712 0
-0.002238 -0.000938 0
-0.002270 -0.001172 0
-0.002297 -0.001413 0
-0.002316 -0.001662 0
-0.002325 -0.001917 0
-0.002321 -0.002179 0
-0.002302 -0.002446 0
-0.002265 -0.002715 0
-0.002207 -0.002984 0
-0.002126 -0.003251 0
-0.002021 -0.003512 0
-0.001890 -0.003763 0
-0.001733 -0.004000 0
-0.001548 -0.004218 0
-0.001338 -0.004413 0
-0.001104 -0.004580 0
-0.000849 -0.004716 0
-0.000577 -0.004815 0
-0.000292 -0.004876 0
0.000000 -0.002448 0
0.000000 0.000326 0
-0.002278 0.000119 0
-0.002310 -0.000092 0
-0.002348 -0.000308 0
-0.002389 -0.000531 0
-0.002432 -0.000761 0
-0.002475 -0.000999 0
-0.002515 -0.001247 0
-0.002551 -0.001505 0
-0.002578 -0.001773 0
-0.002595 -0.002049 0
-0.002598 -0.002334 0
-0.002583 -0.002626 0
-0.002549 -0.002923 0
-0.002491 -0.003222 0
-0.002407 -0.003520 0
-0.002295 -0.003813 0
-0.002152 -0.004097 0
-0.001978 -0.004366 0
-0.001772 -0.004616 0
-0.001535 -0.004840 0
-0.001269 -0.005034 0
-0.000977 -0.005190 0
-0.000664 -0.005306 0
-0.000337 -0.005377 0
0.000000 -0.002700 0
0.000000 0.000320 0
-0.002491 0.000107 0
-0.002527 -0.000110 0
-0.002571 -0.000334 0
-0.002619 -0.000565 0
-0.002672 -0.000805 0
-0.002725 -0.001056 0
-0.002776 -0.001318 0
-0.002823 -0.001593 0
-0.002861 -0.001880 0
-0.002888 -0.002179 0
-0.002900 -0.002489 0
-0.002893 -0.002808 0
-0.002863 -0.003135 0
-0.002807 -0.003467 0
-0.002722 -0.003800 0
-0.002603 -0.004130 0
-0.002449 -0.004452 0
-0.002258 -0.004760 0
-0.002028 -0.005047 0
-0.001761 -0.005306 0
-0.001459 -0.005531 0
-0.001126 -0.005714 0
-0.000767 -0.005849 0
-0.000389 -0.005932 0
0.000000 -0.002980 0
0.000000 0.000312 0
-0.002708 0.000096 0
-0.002749 -0.000126 0
-0.002800 -0.000355 0
-0.002859 -0.000593 0
-0.002922 -0.000843 0
-0.002988 -0.001105 0
-0.003053 -0.001382 0
-0.003113 -0.001674 0
-0.003165 -0.001981 0
-0.003205 -0.002303 0
-0.003229 -0.002640 0
-0.003232 -0.002989 0
-0.003211 -0.003349 0
-0.003160 -0.003718 0
-0.003075 -0.004090 0
-0.002952 -0.004463 0
-0.002788 -0.004829 0
-0.002579 -0.005181 0
-0.002325 -0.005512 0
-0.002025 -0.005814 0
-0.001682 -0.006076 0
-0.001301 -0.006292 0
-0.000887 -0.006452 0
-0.000450 -0.006550 0
0.000000 -0.003292 0
0.000000 0.000303 0
-0.002928 0.000085 0
-0.002975 -0.000139 0
-0.003035 -0.000371 0
-0.003105 -0.000614 0
-0.003182 -0.000872 0
-0.003263 -0.001145 0
-0.003344 -0.001436 0
-0.003422 -0.001745 0
-0.003491 -0.002072 0
-0.003548 -0.002419 0
-0.003587 -0.002783 0
-0.003605 -0.003165 0
-0.003595 -0.003561 0
-0.003553 -0.003970 0
-0.003472 -0.004388 0
-0.003348 -0.004808 0
-0.003175 -0.005225 0
-0.002950 -0.005630 0
-0.002670 -0.006015 0
-0.002334 -0.006367 0
-0.001945 -0.006676 0
-0.001508 -0.006931 0
-0.001030 -0.007122 0
-0.000523 -0.007240 0
0.000000 -0.003640 0
0.000000 0.000292 0
-0.003148 0.000076 0
-0.003202 -0.000146 0
-0.003273 -0.000379 0
-0.003357 -0.000625 0
-0.003451 -0.000889 0
-0.003551 -0.001172 0
-0.003652 -0.001476 0
-0.003749 -0.001801 0
-0.003839 -0.002150 0
-0.003917 -0.002521 0
-0.003976 -0.002915 0
-0.004013 -0.003331 0
-0.004020 -0.003767 0
-0.003991 -0.004220 0
-0.003919 -0.004688 0
-0.003797 -0.005163 0
-0.003619 -0.005639 0
-0.003379 -0.006107 0
-0.003073 -0.006555 0
-0.002699 -0.006970 0
-0.002258 -0.007337 0
-0.001756 -0.007642 0
-0.001203 -0.007872 0
-0.000612 -0.008014 0
0.000000 -0.004031 0
0.000000 0.000279 0
-0.003363 0.000071 0
-0.003426 -0.000146 0
-0.003511 -0.000376 0
-0.003613 -0.000623 0
-0.003727 -0.000890 0
-0.003849 -0.001181 0
-0.003973 -0.001498 0
-0.004096 -0.001840 0
-0.004211 -0.002210 0
-0.004313 -0.002606 0
-0.004398 -0.003031 0
-0.004459 -0.003482 0
-0.004488 -0.003960 0
-0.004478 -0.004462 0
-0.004421 -0.004985 0
-0.004308 -0.005523 0
-0.004130 -0.006068 0
-0.003878 -0.006610 0
-0.003547 -0.007135 0
-0.003131 -0.007626 0
-0.002632 -0.008066 0
-0.002056 -0.008435 0
-0.001412 -0.008715 0
-0.000720 -0.008889 0
0.000000 -0.004474 0
0.000000 0.000265 0
-0.003569 0.000069 0
-0.003644 -0.000136 0
-0.003745 -0.000359 0
-0.003869 -0.000602 0
-0.004008 -0.000872 0
-0.004157 -0.001170 0
-0.004309 -0.001498 0
-0.004461 -0.001856 0
-0.004605 -0.002246 0
-0.004738 -0.002668 0
-0.004853 -0.003124 0
-0.004944 -0.003613 0
-0.005003 -0.004135 0
-0.005020 -0.004689 0
-0.004986 -0.005273 0
-0.004889 -0.005881 0
-0.004718 -0.006506 0
-0.004461 -0.007135 0
-0.004107 -0.007753 0
-0.003649 -0.008340 0
-0.003086 -0.008872 0
-0.002422 -0.009323 0
-0.001670 -0.009668 0
-0.000853 -0.009885 0
0.000000 -0.004979 0
0.000000 0.000082 0
-0.003758 0.000075 0
-0.003848 -0.000113 0
-0.003972 -0.000322 0
-0.004123 -0.000560 0
-0.004293 -0.000829 0
-0.004473 -0.001132 0
-0.004659 -0.001471 0
-0.004844 -0.001844 0
-0.005022 -0.002255 0
-0.005191 -0.002702 0
-0.005342 -0.003188 0
-0.005470 -0.003714 0
-0.005566 -0.004282 0
-0.005620 -0.004891 0
-0.005620 -0.005541 0
-0.005551 -0.006228 0
-0.005397 -0.006944 0
-0.005144 -0.007677 0
-0.004774 -0.008408 0
-0.004275 -0.009114 0
-0.003642 -0.009763 0
-0.002876 -0.010322 0
-0.001993 -0.010754 0
-0.001021 -0.011028 0
0.000000 -0.005561 0
0.000000 0.000082 0
-0.003922 0.000090 0
-0.004033 -0.000071 0
-0.004187 -0.000261 0
-0.004373 -0.000488 0
-0.004580 -0.000755 0
-0.004798 -0.001063 0
-0.005021 -0.001412 0
-0.005244 -0.001800 0
-0.005461 -0.002229 0
-0.005670 -0.002701 0
-0.005864 -0.003216 0
-0.006037 -0.003778 0
-0.006180 -0.004391 0
-0.006282 -0.005057 0
-0.006328 -0.005778 0
-0.006302 -0.006550 0
-0.006182 -0.007370 0
-0.005946 -0.008224 0
-0.005572 -0.009094 0
-0.005038 -0.009949 0
-0.004330 -0.010751 0
-0.003448 -0.011452 0
-0.002405 -0.012003 0
-0.001237 -0.012357 0
0.000000 -0.006239 0
0.000000 0.000086 0
-0.004049 0.000119 0
-0.004188 -0.000002 0
-0.004384 -0.000165 0
-0.004616 -0.000378 0
-0.004868 -0.000642 0
-0.005131 -0.000956 0
-0.005397 -0.001315 0
-0.005661 -0.001719 0
-0.005921 -0.002166 0
-0.006174 -0.002659 0
-0.006417 -0.003200 0
-0.006643 -0.003796 0
-0.006843 -0.004451 0
-0.007007 -0.005173 0
-0.007116 -0.005965 0
-0.007152 -0.006830 0
-0.007087 -0.007765 0
-0.006891 -0.008761 0
-0.006532 -0.009797 0
-0.005976 -0.010841 0
-0.005196 -0.011842 0
-0.004180 -0.012738 0
-0.002940 -0.013455 0
-0.001521 -0.013921 0
0.000000 -0.007041 0
0.000000 -nan 0
-0.004119 0.000171 0
-0.004304 0.000106 0
-0.004558 -0.000021 0
-0.004851 -0.000218 0
-0.005161 -0.000483 0
-0.005475 -0.000805 0
-0.005786 -0.001178 0
-0.006094 -0.001597 0
-0.006398 -0.002060 0
-0.006699 -0.002571 0
-0.006996 -0.003133 0
-0.007282 -0.003757 0
-0.007552 -0.004449 0
-0.007792 -0.005222 0
-0.007985 -0.006084 0
-0.008107 -0.007043 0
-0.008127 -0.008104 0
-0.008004 -0.009261 0
-0.007692 -0.010498 0
-0.007140 -0.011779 0
-0.006298 -0.013044 0
-0.005136 -0.014207 0
-0.003654 -0.015160 0
-0.001905 -0.015792 0
0.000000 -0.008007 0
0.000000 0.000114 0
-0.004106 0.000260 0
-0.004365 0.000276 0
-0.004708 0.000192 0
-0.005085 0.000005 0
-0.005464 -0.000267 0
-0.005834 -0.000607 0
-0.006191 -0.000998 0
-0.006542 -0.001433 0
-0.006890 -0.001910 0
-0.007240 -0.002433 0
-0.007594 -0.003009 0
-0.007949 -0.003651 0
-0.008298 -0.004370 0
-0.008632 -0.005184 0
-0.008931 -0.006108 0
-0.009171 -0.007159 0
-0.009314 -0.008349 0
-0.009310 -0.009685 0
-0.009096 -0.011158 0
-0.008594 -0.012735 0
-0.007723 -0.014350 0
-0.006412 -0.015888 0
-0.004634 -0.017191 0
-0.002443 -0.018077 0
0.000000 -0.009197 0
0.000000 0.000152 0
-0.003967 0.000413 0
-0.004357 0.000544 0
-0.004840 0.000505 0
-0.005331 0.000314 0
-0.005792 0.000013 0
-0.006217 -0.000358 0
-0.006617 -0.000776 0
-0.007004 -0.001229 0
-0.007392 -0.001716 0
-0.007789 -0.002244 0
-0.008201 -0.002823 0
-0.008629 -0.003469 0
-0.009069 -0.004200 0
-0.009513 -0.005038 0
-0.009944 -0.006008 0
-0.010337 -0.007137 0
-0.010652 -0.008451 0
-0.010831 -0.009974 0
-0.010790 -0.011716 0
-0.010421 -0.013658 0
-0.009589 -0.015735 0
-0.008156 -0.017807 0
-0.006027 -0.019640 0
-0.003231 -0.020935 0
0.000000 -0.010703 0
0.000000 0.000231 0
-0.003629 0.000690 0
-0.004271 0.000982 0
-0.004979 0.000968 0
-0.005621 0.000730 0
-0.006169 0.000363 0
-0.006640 -0.000065 0
-0.007067 -0.000521 0
-0.007478 -0.000993 0
-0.007896 -0.001484 0
-0.008334 -0.002005 0
-0.008802 -0.002572 0
-0.009306 -0.003204 0
-0.009844 -0.003925 0
-0.010414 -0.004763 0
-0.011002 -0.005752 0
-0.011587 -0.006931 0
-0.012132 -0.008347 0
-0.012574 -0.010047 0
-0.012816 -0.012075 0
-0.012711 -0.014449 0
-0.012056 -0.017129 0
-0.010596 -0.019965 0
-0.008088 -0.022631 0
-0.004451 -0.024618 0
0.000000 -0.012683 0
0.000000 0.000405 0
-0.002978 0.001231 0
-0.004135 0.001725 0
-0.005200 0.001655 0
-0.006021 0.001273 0
-0.006635 0.000773 0
-0.007121 0.000254 0
-0.007546 -0.000251 0
-0.007959 -0.000739 0
-0.008390 -0.001223 0
-0.008859 -0.001722 0
-0.009379 -0.002256 0
-0.009957 -0.002851 0
-0.010598 -0.003534 0
-0.011303 -0.004339 0
-0.012069 -0.005307 0
-0.012884 -0.006492 0
-0.013719 -0.007960 0
-0.014521 -0.009794 0
-0.015191 -0.012089 0
-0.015555 -0.014934 0
-0.015329 -0.018370 0
-0.014083 -0.022294 0
-0.011277 -0.026304 0
-0.006485 -0.029540 0
0.000000 -0.015413 0
0.000000 0.000854 0
-0.001873 0.002394 0
-0.004108 0.003032 0
-0.005678 0.002652 0
-0.006643 0.001934 0
-0.007245 0.001202 0
-0.007676 0.000557 0
-0.008051 0.000002 0
-0.008434 -0.000490 0
-0.008858 -0.000948 0
-0.009345 -0.001403 0
-0.009907 -0.001882 0
-0.010554 -0.002412 0
-0.011295 -0.003023 0
-0.012140 -0.003752 0
-0.013095 -0.004647 0
-0.014165 -0.005769 0
-0.015344 -0.007208 0
-0.016604 -0.009082 0
-0.017875 -0.011554 0
-0.018992 -0.014829 0
-0.019622 -0.019123 0
-0.019130 -0.024540 0
-0.016449 -0.030751 0
-0.010212 -0.036414 0
0.000000 -0.019428 0
0.000000 0.002237 0
-0.000443 0.005220 0
-0.004761 0.005359 0
-0.006779 0.003986 0
-0.007640 0.002606 0
-0.008040 0.001545 0
-0.008301 0.000770 0
-0.008562 0.000190 0
-0.008878 -0.000274 0
-0.009276 -0.000678 0
-0.009766 -0.001062 0
-0.010359 -0.001457 0
-0.011065 -0.001892 0
-0.011898 -0.002395 0
-0.012873 -0.003001 0
-0.014013 -0.003759 0
-0.015344 -0.004732 0
-0.016892 -0.006020 0
-0.018682 -0.007772 0
-0.020714 -0.010216 0
-0.022918 -0.013706 0
-0.025039 -0.018755 0
-0.026367 -0.025992 0
-0.025178 -0.035746 0
-0.017913 -0.046511 0
0.000000 -0.025885 0
0.000000 0.007282 0
-0.001200 0.013060 0
-0.007729 0.009196 0
-0.009051 0.005328 0
-0.009115 0.002961 0
-0.008988 0.001600 0
-0.008940 0.000788 0
-0.009029 0.000262 0
-0.009255 -0.000119 0
-0.009612 -0.000427 0
-0.010096 -0.000709 0
-0.010709 -0.000993 0
-0.011460 -0.001303 0
-0.012365 -0.001663 0
-0.013450 -0.002100 0
-0.014748 -0.002654 0
-0.016310 -0.003381 0
-0.018203 -0.004370 0
-0.020521 -0.005769 0
-0.023383 -0.007833 0
-0.026929 -0.011024 0
-0.031251 -0.016198 0
-0.036122 -0.024927 0
-0.039981 -0.039730 0
-0.036259 -0.062114 0
0.000000 -0.037601 0
0.000000 0.028347 0
0.103381 0.037780 0
0.109081 0.013036 0
0.112404 0.005168 0
0.114205 0.002309 0
0.115131 0.001107 0
0.115542 0.000520 0
0.115628 0.000187 0
0.115487 -0.000034 0
0.115167 -0.000204 0
0.114693 -0.000354 0
0.114069 -0.000503 0
0.113290 -0.000665 0
0.112337 -0.000853 0
0.111181 -0.001082 0
0.109775 -0.001376 0
0.108050 -0.001767 0
0.105905 -0.002310 0
0.103181 -0.003101 0
0.099628 -0.004323 0
0.094833 -0.006359 0
0.088085 -0.010086 0
0.078113 -0.017787 0
0.062635 -0.036133 0
0.037860 -0.087014 0
0.000000 -0.062404 0
1.000000 0.000000 0
1.104733 0.000000 0
1.114126 0.000000 0
1.117682 0.000000 0
1.119192 0.000000 0
1.119875 0.000000 0
1.120168 0.000000 0
1.120250 0.000000 0
1.120197 0.000000 0
1.120045 0.000000 0
1.119810 0.000000 0
1.119497 0.000000 0
1.119102 0.000000 0
1.118618 0.000000 0
1.118027 0.000000 0
1.117304 0.000000 0
1.116413 0.000000 0
1.115294 0.000000 0
1.113854 0.000000 0
1.111939 0.000000 0
1.109274 0.000000 0
1.105322 0.000000 0
1.098927 0.000000 0
1.087274 0.000000 0
1.062533 0.000000 0
1.000000 0.000000 0

CELL_DATA 625 
SCALARS pressure float 1 
LOOKUP_TABLE default 
-0.015335
-0.010322
-0.005236
-0.000076
0.005155
0.010451
0.015804
0.021201
0.026625
0.032053
0.037460
0.042814
0.048078
0.053212
0.058171
0.062909
0.067375
0.071519
0.075288
0.078634
0.081509
0.083870
0.085679
0.086906
0.087527
-0.016340
-0.010667
-0.004914
0.000921
0.006838
0.012831
0.018891
0.025007
0.031158
0.037322
0.043468
0.049561
0.055560
0.061419
0.067086
0.072507
0.077624
0.082377
0.086705
0.090551
0.093858
0.096575
0.098659
0.100072
0.100787
-0.017335
-0.010963
-0.004502
0.002051
0.008698
0.015435
0.022254
0.029142
0.036080
0.043041
0.049992
0.056894
0.063701
0.070360
0.076812
0.082994
0.088837
0.094273
0.099231
0.103641
0.107438
0.110560
0.112956
0.114581
0.115403
-0.018313
-0.011203
-0.003994
0.003319
0.010741
0.018270
0.025900
0.033618
0.041403
0.049227
0.057055
0.064843
0.072538
0.080080
0.087402
0.094432
0.101090
0.107295
0.112963
0.118013
0.122366
0.125950
0.128702
0.130569
0.131514
-0.019268
-0.011383
-0.003389
0.004724
0.012966
0.021336
0.029831
0.038437
0.047135
0.055894
0.064675
0.073431
0.082102
0.090620
0.098910
0.106886
0.114458
0.121530
0.128003
0.133781
0.138770
0.142883
0.146043
0.148190
0.149277
-0.020196
-0.011502
-0.002687
0.006266
0.015370
0.024630
0.034043
0.043599
0.053277
0.063046
0.072863
0.082677
0.092420
0.102018
0.111384
0.120419
0.129019
0.137071
0.144460
0.151069
0.156787
0.161509
0.165142
0.167611
0.168862
-0.021092
-0.011560
-0.001891
0.007937
0.017945
0.028141
0.038527
0.049094
0.059823
0.070681
0.081623
0.092591
0.103514
0.114306
0.124869
0.135090
0.144849
0.154013
0.162447
0.170010
0.176569
0.181995
0.186178
0.189023