# vtk DataFile Version 2.0
generated by CFD-lab course output (written by Tobias Neckel) 
ASCII

DATASET STRUCTURED_GRID
DIMENSIONS  26 26 1 
POINTS 676 float

0.500000 0.000000 0
0.520000 0.000000 0
0.540000 0.000000 0
0.560000 0.000000 0
0.580000 0.000000 0
0.600000 0.000000 0
0.620000 0.000000 0
0.640000 0.000000 0
0.660000 0.000000 0
0.680000 0.000000 0
0.700000 0.000000 0
0.720000 0.000000 0
0.740000 0.000000 0
0.760000 0.000000 0
0.780000 0.000000 0
0.800000 0.000000 0
0.820000 0.000000 0
0.840000 0.000000 0
0.860000 0.000000 0
0.880000 0.000000 0
0.900000 0.000000 0
0.920000 0.000000 0
0.940000 0.000000 0
0.960000 0.000000 0
0.980000 0.000000 0
1.000000 0.000000 0
0.500000 0.020000 0
0.520000 0.020000 0
0.540000 0.020000 0
0.560000 0.020000 0
0.580000 0.020000 0
0.600000 0.020000 0
0.620000 0.020000 0
0.640000 0.020000 0
0.660000 0.020000 0
0.680000 0.020000 0
0.700000 0.020000 0
0.720000 0.020000 0
0.740000 0.020000 0
0.760000 0.020000 0
0.780000 0.020000 0
0.800000 0.020000 0
0.820000 0.020000 0
0.840000 0.020000 0
0.860000 0.020000 0
0.880000 0.020000 0
0.900000 0.020000 0
0.920000 0.020000 0
0.940000 0.020000 0
0.960000 0.020000 0
0.980000 0.020000 0
1.000000 0.020000 0
0.500000 0.040000 0
0.520000 0.040000 0
0.540000 0.040000 0
0.560000 0.040000 0
0.580000 0.040000 0
0.600000 0.040000 0
0.620000 0.040000 0
0.640000 0.040000 0
0.660000 0.040000 0
0.680000 0.040000 0
0.700000 0.040000 0
0.720000 0.040000 0
0.740000 0.040000 0
0.760000 0.040000 0
0.780000 0.040000 0
0.800000 0.040000 0
0.820000 0.040000 0
0.840000 0.040000 0
0.860000 0.040000 0
0.880000 0.040000 0
0.900000 0.040000 0
0.920000 0.040000 0
0.940000 0.040000 0
0.960000 0.040000 0
0.980000 0.040000 0
1.000000 0.040000 0
0.500000 0.060000 0
0.520000 0.060000 0
0.540000 0.060000 0
0.560000 0.060000 0
0.580000 0.060000 0
0.600000 0.060000 0
0.620000 0.060000 0
0.640000 0.060000 0
0.660000 0.060000 0
0.680000 0.060000 0
0.700000 0.060000 0
0.720000 0.060000 0
0.740000 0.060000 0
0.760000 0.060000 0
0.780000 0.060000 0
0.800000 0.060000 0
0.820000 0.060000 0
0.840000 0.060000 0
0.860000 0.060000 0
0.880000 0.060000 0
0.900000 0.060000 0
0.920000 0.060000 0
0.940000 0.060000 0
0.960000 0.060000 0
0.980000 0.060000 0
1.000000 0.060000 0
0.500000 0.080000 0
0.520000 0.080000 0
0.540000 0.080000 0
0.560000 0.080000 0
0.580000 0.080000 0
0.600000 0.080000 0
0.620000 0.080000 0
0.640000 0.080000 0
0.660000 0.080000 0
0.680000 0.080000 0
0.700000 0.080000 0
0.720000 0.080000 0
0.740000 0.080000 0
0.760000 0.080000 0
0.780000 0.080000 0
0.800000 0.080000 0
0.820000 0.080000 0
0.840000 0.080000 0
0.860000 0.080000 0
0.880000 0.080000 0
0.900000 0.080000 0
0.920000 0.080000 0
0.940000 0.080000 0
0.960000 0.080000 0
0.980000 0.080000 0
1.000000 0.080000 0
0.500000 0.100000 0
0.520000 0.100000 0
0.540000 0.100000 0
0.560000 0.100000 0
0.580000 0.100000 0
0.600000 0.100000 0
0.620000 0.100000 0
0.640000 0.100000 0
0.660000 0.100000 0
0.680000 0.100000 0
0.700000 0.100000 0
0.720000 0.100000 0
0.740000 0.100000 0
0.760000 0.100000 0
0.780000 0.100000 0
0.800000 0.100000 0
0.820000 0.100000 0
0.840000 0.100000 0
0.860000 0.100000 0
0.880000 0.100000 0
0.900000 0.100000 0
0.920000 0.100000 0
0.940000 0.100000 0
0.960000 0.100000 0
0.980000 0.100000 0
1.000000 0.100000 0
0.500000 0.120000 0
0.520000 0.120000 0
0.540000 0.120000 0
0.560000 0.120000 0
0.580000 0.120000 0
0.600000 0.120000 0
0.620000 0.120000 0
0.640000 0.120000 0
0.660000 0.120000 0
0.680000 0.120000 0
0.700000 0.120000 0
0.720000 0.120000 0
0.740000 0.120000 0
0.760000 0.120000 0
0.780000 0.120000 0
0.800000 0.120000 0
0.820000 0.120000 0
0.840000 0.120000 0
0.860000 0.120000 0
0.880000 0.120000 0
0.900000 0.120000 0
0.920000 0.120000 0
0.940000 0.120000 0
0.960000 0.120000 0
0.980000 0.120000 0
1.000000 0.120000 0
0.500000 0.140000 0
0.520000 0.140000 0
0.540000 0.140000 0
0.560000 0.140000 0
0.580000 0.140000 0
0.600000 0.140000 0
0.620000 0.140000 0
0.640000 0.140000 0
0.660000 0.140000 0
0.680000 0.140000 0
0.700000 0.140000 0
0.720000 0.140000 0
0.740000 0.140000 0
0.760000 0.140000 0
0.780000 0.140000 0
0.800000 0.140000 0
0.820000 0.140000 0
0.840000 0.140000 0
0.860000 0.140000 0
0.880000 0.140000 0
0.900000 0.140000 0
0.920000 0.140000 0
0.940000 0.140000 0
0.960000 0.140000 0
0.980000 0.140000 0
1.000000 0.140000 0
0.500000 0.160000 0
0.520000 0.160000 0
0.540000 0.160000 0
0.560000 0.160000 0
0.580000 0.160000 0
0.600000 0.160000 0
0.620000 0.160000 0
0.640000 0.160000 0
0.660000 0.160000 0
0.680000 0.160000 0
0.700000 0.160000 0
0.720000 0.160000 0
0.740000 0.160000 0
0.760000 0.160000 0
0.780000 0.160000 0
0.800000 0.160000 0
0.820000 0.160000 0
0.840000 0.160000 0
0.860000 0.160000 0
0.880000 0.160000 0
0.900000 0.160000 0
0.920000 0.160000 0
0.940000 0.160000 0
0.960000 0.160000 0
0.980000 0.160000 0
1.000000 0.160000 0
0.500000 0.180000 0
0.520000 0.180000 0
0.540000 0.180000 0
0.560000 0.180000 0
0.580000 0.180000 0
0.600000 0.180000 0
0.620000 0.180000 0
0.640000 0.180000 0
0.660000 0.180000 0
0.680000 0.180000 0
0.700000 0.180000 0
0.720000 0.180000 0
0.740000 0.180000 0
0.760000 0.180000 0
0.780000 0.180000 0
0.800000 0.180000 0
0.820000 0.180000 0
0.840000 0.180000 0
0.860000 0.180000 0
0.880000 0.180000 0
0.900000 0.180000 0
0.920000 0.180000 0
0.940000 0.180000 0
0.960000 0.180000 0
0.980000 0.180000 0
1.000000 0.180000 0
0.500000 0.200000 0
0.520000 0.200000 0
0.540000 0.200000 0
0.560000 0.200000 0
0.580000 0.200000 0
0.600000 0.200000 0
0.620000 0.200000 0
0.640000 0.200000 0
0.660000 0.200000 0
0.680000 0.200000 0
0.700000 0.200000 0
0.720000 0.200000 0
0.740000 0.200000 0
0.760000 0.200000 0
0.780000 0.200000 0
0.800000 0.200000 0
0.820000 0.200000 0
0.840000 0.200000 0
0.860000 0.200000 0
0.880000 0.200000 0
0.900000 0.200000 0
0.920000 0.200000 0
0.940000 0.200000 0
0.960000 0.200000 0
0.980000 0.200000 0
1.000000 0.200000 0
0.500000 0.220000 0
0.520000 0.220000 0
0.540000 0.220000 0
0.560000 0.220000 0
0.580000 0.220000 0
0.600000 0.220000 0
0.620000 0.220000 0
0.640000 0.220000 0
0.660000 0.220000 0
0.680000 0.220000 0
0.700000 0.220000 0
0.720000 0.220000 0
0.740000 0.220000 0
0.760000 0.220000 0
0.780000 0.220000 0
0.800000 0.220000 0
0.820000 0.220000 0
0.840000 0.220000 0
0.860000 0.220000 0
0.880000 0.220000 0
0.900000 0.220000 0
0.920000 0.220000 0
0.940000 0.220000 0
0.960000 0.220000 0
0.980000 0.220000 0
1.000000 0.220000 0
0.500000 0.240000 0
0.520000 0.240000 0
0.540000 0.240000 0
0.560000 0.240000 0
0.580000 0.240000 0
0.600000 0.240000 0
0.620000 0.240000 0
0.640000 0.240000 0
0.660000 0.240000 0
0.680000 0.240000 0
0.700000 0.240000 0
0.720000 0.240000 0
0.740000 0.240000 0
0.760000 0.240000 0
0.780000 0.240000 0
0.800000 0.240000 0
0.820000 0.240000 0
0.840000 0.240000 0
0.860000 0.240000 0
0.880000 0.240000 0
0.900000 0.240000 0
0.920000 0.240000 0
0.940000 0.240000 0
0.960000 0.240000 0
0.980000 0.240000 0
1.000000 0.240000 0
0.500000 0.260000 0
0.520000 0.260000 0
0.540000 0.260000 0
0.560000 0.260000 0
0.580000 0.260000 0
0.600000 0.260000 0
0.620000 0.260000 0
0.640000 0.260000 0
0.660000 0.260000 0
0.680000 0.260000 0
0.700000 0.260000 0
0.720000 0.260000 0
0.740000 0.260000 0
0.760000 0.260000 0
0.780000 0.260000 0
0.800000 0.260000 0
0.820000 0.260000 0
0.840000 0.260000 0
0.860000 0.260000 0
0.880000 0.260000 0
0.900000 0.260000 0
0.920000 0.260000 0
0.940000 0.260000 0
0.960000 0.260000 0
0.980000 0.260000 0
1.000000 0.260000 0
0.500000 0.280000 0
0.520000 0.280000 0
0.540000 0.280000 0
0.560000 0.280000 0
0.580000 0.280000 0
0.600000 0.280000 0
0.620000 0.280000 0
0.640000 0.280000 0
0.660000 0.280000 0
0.680000 0.280000 0
0.700000 0.280000 0
0.720000 0.280000 0
0.740000 0.280000 0
0.760000 0.280000 0
0.780000 0.280000 0
0.800000 0.280000 0
0.820000 0.280000 0
0.840000 0.280000 0
0.860000 0.280000 0
0.880000 0.280000 0
0.900000 0.280000 0
0.920000 0.280000 0
0.940000 0.280000 0
0.960000 0.280000 0
0.980000 0.280000 0
1.000000 0.280000 0
0.500000 0.300000 0
0.520000 0.300000 0
0.540000 0.300000 0
0.560000 0.300000 0
0.580000 0.300000 0
0.600000 0.300000 0
0.620000 0.300000 0
0.640000 0.300000 0
0.660000 0.300000 0
0.680000 0.300000 0
0.700000 0.300000 0
0.720000 0.300000 0
0.740000 0.300000 0
0.760000 0.300000 0
0.780000 0.300000 0
0.800000 0.300000 0
0.820000 0.300000 0
0.840000 0.300000 0
0.860000 0.300000 0
0.880000 0.300000 0
0.900000 0.300000 0
0.920000 0.300000 0
0.940000 0.300000 0
0.960000 0.300000 0
0.980000 0.300000 0
1.000000 0.300000 0
0.500000 0.320000 0
0.520000 0.320000 0
0.540000 0.320000 0
0.560000 0.320000 0
0.580000 0.320000 0
0.600000 0.320000 0
0.620000 0.320000 0
0.640000 0.320000 0
0.660000 0.320000 0
0.680000 0.320000 0
0.700000 0.320000 0
0.720000 0.320000 0
0.740000 0.320000 0
0.760000 0.320000 0
0.780000 0.320000 0
0.800000 0.320000 0
0.820000 0.320000 0
0.840000 0.320000 0
0.860000 0.320000 0
0.880000 0.320000 0
0.900000 0.320000 0
0.920000 0.320000 0
0.940000 0.320000 0
0.960000 0.320000 0
0.980000 0.320000 0
1.000000 0.320000 0
0.500000 0.340000 0
0.520000 0.340000 0
0.540000 0.340000 0
0.560000 0.340000 0
0.580000 0.340000 0
0.600000 0.340000 0
0.620000 0.340000 0
0.640000 0.340000 0
0.660000 0.340000 0
0.680000 0.340000 0
0.700000 0.340000 0
0.720000 0.340000 0
0.740000 0.340000 0
0.760000 0.340000 0
0.780000 0.340000 0
0.800000 0.340000 0
0.820000 0.340000 0
0.840000 0.340000 0
0.860000 0.340000 0
0.880000 0.340000 0
0.900000 0.340000 0
0.920000 0.340000 0
0.940000 0.340000 0
0.960000 0.340000 0
0.980000 0.340000 0
1.000000 0.340000 0
0.500000 0.360000 0
0.520000 0.360000 0
0.540000 0.360000 0
0.560000 0.360000 0
0.580000 0.360000 0
0.600000 0.360000 0
0.620000 0.360000 0
0.640000 0.360000 0
0.660000 0.360000 0
0.680000 0.360000 0
0.700000 0.360000 0
0.720000 0.360000 0
0.740000 0.360000 0
0.760000 0.360000 0
0.780000 0.360000 0
0.800000 0.360000 0
0.820000 0.360000 0
0.840000 0.360000 0
0.860000 0.360000 0
0.880000 0.360000 0
0.900000 0.360000 0
0.920000 0.360000 0
0.940000 0.360000 0
0.960000 0.360000 0
0.980000 0.360000 0
1.000000 0.360000 0
0.500000 0.380000 0
0.520000 0.380000 0
0.540000 0.380000 0
0.560000 0.380000 0
0.580000 0.380000 0
0.600000 0.380000 0
0.620000 0.380000 0
0.640000 0.380000 0
0.660000 0.380000 0
0.680000 0.380000 0
0.700000 0.380000 0
0.720000 0.380000 0
0.740000 0.380000 0
0.760000 0.380000 0
0.780000 0.380000 0
0.800000 0.380000 0
0.820000 0.380000 0
0.840000 0.380000 0
0.860000 0.380000 0
0.880000 0.380000 0
0.900000 0.380000 0
0.920000 0.380000 0
0.940000 0.380000 0
0.960000 0.380000 0
0.980000 0.380000 0
1.000000 0.380000 0
0.500000 0.400000 0
0.520000 0.400000 0
0.540000 0.400000 0
0.560000 0.400000 0
0.580000 0.400000 0
0.600000 0.400000 0
0.620000 0.400000 0
0.640000 0.400000 0
0.660000 0.400000 0
0.680000 0.400000 0
0.700000 0.400000 0
0.720000 0.400000 0
0.740000 0.400000 0
0.760000 0.400000 0
0.780000 0.400000 0
0.800000 0.400000 0
0.820000 0.400000 0
0.840000 0.400000 0
0.860000 0.400000 0
0.880000 0.400000 0
0.900000 0.400000 0
0.920000 0.400000 0
0.940000 0.400000 0
0.960000 0.400000 0
0.980000 0.400000 0
1.000000 0.400000 0
0.500000 0.420000 0
0.520000 0.420000 0
0.540000 0.420000 0
0.560000 0.420000 0
0.580000 0.420000 0
0.600000 0.420000 0
0.620000 0.420000 0
0.640000 0.420000 0
0.660000 0.420000 0
0.680000 0.420000 0
0.700000 0.420000 0
0.720000 0.420000 0
0.740000 0.420000 0
0.760000 0.420000 0
0.780000 0.420000 0
0.800000 0.420000 0
0.820000 0.420000 0
0.840000 0.420000 0
0.860000 0.420000 0
0.880000 0.420000 0
0.900000 0.420000 0
0.920000 0.420000 0
0.940000 0.420000 0
0.960000 0.420000 0
0.980000 0.420000 0
1.000000 0.420000 0
0.500000 0.440000 0
0.520000 0.440000 0
0.540000 0.440000 0
0.560000 0.440000 0
0.580000 0.440000 0
0.600000 0.440000 0
0.620000 0.440000 0
0.640000 0.440000 0
0.660000 0.440000 0
0.680000 0.440000 0
0.700000 0.440000 0
0.720000 0.440000 0
0.740000 0.440000 0
0.760000 0.440000 0
0.780000 0.440000 0
0.800000 0.440000 0
0.820000 0.440000 0
0.840000 0.440000 0
0.860000 0.440000 0
0.880000 0.440000 0
0.900000 0.440000 0
0.920000 0.440000 0
0.940000 0.440000 0
0.960000 0.440000 0
0.980000 0.440000 0
1.000000 0.440000 0
0.500000 0.460000 0
0.520000 0.460000 0
0.540000 0.460000 0
0.560000 0.460000 0
0.580000 0.460000 0
0.600000 0.460000 0
0.620000 0.460000 0
0.640000 0.460000 0
0.660000 0.460000 0
0.680000 0.460000 0
0.700000 0.460000 0
0.720000 0.460000 0
0.740000 0.460000 0
0.760000 0.460000 0
0.780000 0.460000 0
0.800000 0.460000 0
0.820000 0.460000 0
0.840000 0.460000 0
0.860000 0.460000 0
0.880000 0.460000 0
0.900000 0.460000 0
0.920000 0.460000 0
0.940000 0.460000 0
0.960000 0.460000 0
0.980000 0.460000 0
1.000000 0.460000 0
0.500000 0.480000 0
0.520000 0.480000 0
0.540000 0.480000 0
0.560000 0.480000 0
0.580000 0.480000 0
0.600000 0.480000 0
0.620000 0.480000 0
0.640000 0.480000 0
0.660000 0.480000 0
0.680000 0.480000 0
0.700000 0.480000 0
0.720000 0.480000 0
0.740000 0.480000 0
0.760000 0.480000 0
0.780000 0.480000 0
0.800000 0.480000 0
0.820000 0.480000 0
0.840000 0.480000 0
0.860000 0.480000 0
0.880000 0.480000 0
0.900000 0.480000 0
0.920000 0.480000 0
0.940000 0.480000 0
0.960000 0.480000 0
0.980000 0.480000 0
1.000000 0.480000 0
0.500000 0.500000 0
0.520000 0.500000 0
0.540000 0.500000 0
0.560000 0.500000 0
0.580000 0.500000 0
0.600000 0.500000 0
0.620000 0.500000 0
0.640000 0.500000 0
0.660000 0.500000 0
0.680000 0.500000 0
0.700000 0.500000 0
0.720000 0.500000 0
0.740000 0.500000 0
0.760000 0.500000 0
0.780000 0.500000 0
0.800000 0.500000 0
0.820000 0.500000 0
0.840000 0.500000 0
0.860000 0.500000 0
0.880000 0.500000 0
0.900000 0.500000 0
0.920000 0.500000 0
0.940000 0.500000 0
0.960000 0.500000 0
0.980000 0.500000 0
1.000000 0.500000 0
POINT_DATA 676 

VECTORS velocity float
0.000000 0.000000 0
-0.000015 0.000000 0
-0.000016 0.000000 0
-0.000017 0.000000 0
-0.000018 0.000000 0
-0.000019 0.000000 0
-0.000019 0.000000 0
-0.000020 0.000000 0
-0.000020 0.000000 0
-0.000021 0.000000 0
-0.000021 0.000000 0
-0.000021 0.000000 0
-0.000021 0.000000 0
-0.000020 0.000000 0
-0.000020 0.000000 0
-0.000019 0.000000 0
-0.000018 0.000000 0
-0.000017 0.000000 0
-0.000016 0.000000 0
-0.000014 0.000000 0
-0.000012 0.000000 0
-0.000010 0.000000 0
-0.000008 0.000000 0
-0.000005 0.000000 0
-0.000003 0.000000 0
0.000000 0.000000 0
0.000000 0.000031 0
-0.000032 0.000027 0
-0.000034 0.000023 0
-0.000036 0.000019 0
-0.000038 0.000015 0
-0.000039 0.000011 0
-0.000041 0.000007 0
-0.000042 0.000002 0
-0.000043 -0.000002 0
-0.000043 -0.000006 0
-0.000044 -0.000010 0
-0.000044 -0.000014 0
-0.000043 -0.000018 0
-0.000043 -0.000022 0
-0.000041 -0.000026 0
-0.000040 -0.000030 0
-0.000038 -0.000033 0
-0.000035 -0.000036 0
-0.000032 -0.000039 0
-0.000029 -0.000042 0
-0.000025 -0.000044 0
-0.000021 -0.000046 0
-0.000016 -0.000047 0
-0.000011 -0.000048 0
-0.000006 -0.000049 0
0.000000 -0.000025 0
0.000000 0.000039 0
-0.000036 0.000034 0
-0.000038 0.000029 0
-0.000041 0.000023 0
-0.000042 0.000018 0
-0.000044 0.000012 0
-0.000046 0.000007 0
-0.000047 0.000001 0
-0.000048 -0.000005 0
-0.000048 -0.000011 0
-0.000049 -0.000016 0
-0.000048 -0.000022 0
-0.000048 -0.000028 0
-0.000047 -0.000033 0
-0.000046 -0.000038 0
-0.000044 -0.000043 0
-0.000042 -0.000048 0
-0.000039 -0.000052 0
-0.000036 -0.000056 0
-0.000032 -0.000059 0
-0.000028 -0.000063 0
-0.000023 -0.000065 0
-0.000018 -0.000067 0
-0.000012 -0.000069 0
-0.000006 -0.000070 0
0.000000 -0.000035 0
0.000000 0.000049 0
-0.000042 0.000041 0
-0.000045 0.000035 0
-0.000047 0.000028 0
-0.000049 0.000021 0
-0.000051 0.000013 0
-0.000052 0.000006 0
-0.000053 -0.000002 0
-0.000054 -0.000009 0
-0.000055 -0.000017 0
-0.000055 -0.000024 0
-0.000055 -0.000031 0
-0.000054 -0.000038 0
-0.000053 -0.000045 0
-0.000052 -0.000052 0
-0.000049 -0.000058 0
-0.000047 -0.000064 0
-0.000044 -0.000070 0
-0.000040 -0.000075 0
-0.000036 -0.000080 0
-0.000031 -0.000084 0
-0.000026 -0.000087 0
-0.000020 -0.000089 0
-0.000014 -0.000091 0
-0.000007 -0.000093 0
0.000000 -0.000046 0
0.000000 0.000058 0
-0.000050 0.000049 0
-0.000052 0.000041 0
-0.000055 0.000032 0
-0.000057 0.000023 0
-0.000059 0.000014 0
-0.000060 0.000005 0
-0.000062 -0.000005 0
-0.000063 -0.000014 0
-0.000063 -0.000024 0
-0.000063 -0.000033 0
-0.000063 -0.000042 0
-0.000062 -0.000051 0
-0.000061 -0.000060 0
-0.000059 -0.000068 0
-0.000056 -0.000076 0
-0.000053 -0.000083 0
-0.000050 -0.000090 0
-0.000045 -0.000097 0
-0.000040 -0.000102 0
-0.000035 -0.000107 0
-0.000029 -0.000111 0
-0.000022 -0.000115 0
-0.000015 -0.000117 0
-0.000008 -0.000119 0
0.000000 -0.000060 0
0.000000 0.000069 0
-0.000059 0.000057 0
-0.000062 0.000047 0
-0.000065 0.000036 0
-0.000067 0.000025 0
-0.000069 0.000014 0
-0.000071 0.000002 0
-0.000072 -0.000009 0
-0.000073 -0.000021 0
-0.000074 -0.000032 0
-0.000074 -0.000043 0
-0.000073 -0.000055 0
-0.000072 -0.000066 0
-0.000070 -0.000076 0
-0.000068 -0.000086 0
-0.000065 -0.000096 0
-0.000061 -0.000105 0
-0.000057 -0.000114 0
-0.000052 -0.000121 0
-0.000046 -0.000128 0
-0.000040 -0.000134 0
-0.000033 -0.000139 0
-0.000026 -0.000144 0
-0.000018 -0.000146 0
-0.000009 -0.000148 0
0.000000 -0.000074 0
0.000000 0.000079 0
-0.000071 0.000066 0
-0.000074 0.000053 0
-0.000077 0.000040 0
-0.000079 0.000026 0
-0.000082 0.000013 0
-0.000083 -0.000001 0
-0.000085 -0.000015 0
-0.000086 -0.000028 0
-0.000086 -0.000042 0
-0.000086 -0.000056 0
-0.000085 -0.000069 0
-0.000084 -0.000083 0
-0.000082 -0.000095 0
-0.000079 -0.000108 0
-0.000075 -0.000119 0
-0.000071 -0.000130 0
-0.000066 -0.000140 0
-0.000060 -0.000150 0
-0.000054 -0.000158 0
-0.000046 -0.000165 0
-0.000038 -0.000171 0
-0.000029 -0.000176 0
-0.000020 -0.000180 0
-0.000010 -0.000182 0
0.000000 -0.000091 0
0.000000 0.000090 0
-0.000085 0.000074 0
-0.000088 0.000059 0
-0.000091 0.000043 0
-0.000094 0.000027 0
-0.000097 0.000011 0
-0.000099 -0.000005 0
-0.000100 -0.000022 0
-0.000101 -0.000038 0
-0.000101 -0.000055 0
-0.000101 -0.000071 0
-0.000100 -0.000087 0
-0.000098 -0.000102 0
-0.000096 -0.000118 0
-0.000092 -0.000132 0
-0.000088 -0.000146 0
-0.000083 -0.000159 0
-0.000077 -0.000171 0
-0.000070 -0.000182 0
-0.000062 -0.000192 0
-0.000053 -0.000201 0
-0.000044 -0.000208 0
-0.000034 -0.000214 0
-0.000023 -0.000218 0
-0.000012 -0.000220 0
0.000000 -0.000111 0
0.000000 0.000102 0
-0.000101 0.000083 0
-0.000105 0.000065 0
-0.000109 0.000046 0
-0.000112 0.000027 0
-0.000114 0.000008 0
-0.000116 -0.000011 0
-0.000118 -0.000030 0
-0.000119 -0.000050 0
-0.000119 -0.000069 0
-0.000119 -0.000088 0
-0.000117 -0.000107 0
-0.000115 -0.000126 0
-0.000112 -0.000143 0
-0.000108 -0.000160 0
-0.000103 -0.000177 0
-0.000096 -0.000192 0
-0.000089 -0.000206 0
-0.000081 -0.000219 0
-0.000072 -0.000231 0
-0.000062 -0.000241 0
-0.000051 -0.000249 0
-0.000039 -0.000256 0
-0.000027 -0.000261 0
-0.000014 -0.000264 0
0.000000 -0.000132 0
0.000000 0.000114 0
-0.000121 0.000092 0
-0.000125 0.000070 0
-0.000129 0.000049 0
-0.000132 0.000026 0
-0.000135 0.000004 0
-0.000137 -0.000019 0
-0.000139 -0.000041 0
-0.000140 -0.000064 0
-0.000140 -0.000086 0
-0.000139 -0.000109 0
-0.000137 -0.000131 0
-0.000135 -0.000152 0
-0.000131 -0.000173 0
-0.000126 -0.000193 0
-0.000120 -0.000212 0
-0.000112 -0.000230 0
-0.000104 -0.000246 0
-0.000095 -0.000262 0
-0.000084 -0.000275 0
-0.000072 -0.000287 0
-0.000059 -0.000297 0
-0.000046 -0.000304 0
-0.000031 -0.000310 0
-0.000016 -0.000314 0
0.000000 -0.000157 0
0.000000 0.000126 0
-0.000144 0.000100 0
-0.000148 0.000075 0
-0.000153 0.000050 0
-0.000156 0.000024 0
-0.000160 -0.000002 0
-0.000162 -0.000028 0
-0.000164 -0.000054 0
-0.000164 -0.000080 0
-0.000164 -0.000107 0
-0.000163 -0.000132 0
-0.000161 -0.000158 0
-0.000157 -0.000183 0
-0.000153 -0.000207 0
-0.000147 -0.000230 0
-0.000140 -0.000252 0
-0.000131 -0.000273 0
-0.000121 -0.000292 0
-0.000110 -0.000310 0
-0.000098 -0.000325 0
-0.000084 -0.000339 0
-0.000069 -0.000350 0
-0.000053 -0.000359 0
-0.000036 -0.000366 0
-0.000018 -0.000370 0
0.000000 -0.000186 0
0.000000 0.000138 0
-0.000170 0.000109 0
-0.000176 0.000080 0
-0.000180 0.000051 0
-0.000184 0.000021 0
-0.000188 -0.000009 0
-0.000190 -0.000039 0
-0.000192 -0.000070 0
-0.000193 -0.000100 0
-0.000192 -0.000130 0
-0.000191 -0.000160 0
-0.000188 -0.000189 0
-0.000184 -0.000218 0
-0.000178 -0.000246 0
-0.000171 -0.000272 0
-0.000163 -0.000298 0
-0.000153 -0.000322 0
-0.000141 -0.000344 0
-0.000128 -0.000364 0
-0.000113 -0.000382 0
-0.000097 -0.000398 0
-0.000080 -0.000411 0
-0.000061 -0.000422 0
-0.000042 -0.000429 0
-0.000021 -0.000434 0
0.000000 -0.000218 0
0.000000 0.000151 0
-0.000201 0.000117 0
-0.000207 0.000084 0
-0.000212 0.000050 0
-0.000216 0.000016 0
-0.000220 -0.000018 0
-0.000223 -0.000053 0
-0.000225 -0.000088 0
-0.000225 -0.000122 0
-0.000224 -0.000157 0
-0.000223 -0.000191 0
-0.000219 -0.000225 0
-0.000214 -0.000258 0
-0.000208 -0.000290 0
-0.000199 -0.000320 0
-0.000189 -0.000350 0
-0.000178 -0.000377 0
-0.000164 -0.000403 0
-0.000149 -0.000426 0
-0.000132 -0.000447 0
-0.000113 -0.000465 0
-0.000093 -0.000480 0
-0.000071 -0.000492 0
-0.000048 -0.000500 0
-0.000025 -0.000506 0
0.000000 -0.000254 0
0.000000 0.000072 0
-0.000236 0.000125 0
-0.000243 0.000087 0
-0.000248 0.000049 0
-0.000253 0.000010 0
-0.000257 -0.000029 0
-0.000260 -0.000069 0
-0.000262 -0.000109 0
-0.000262 -0.000148 0
-0.000261 -0.000188 0
-0.000259 -0.000227 0
-0.000255 -0.000265 0
-0.000249 -0.000303 0
-0.000241 -0.000339 0
-0.000232 -0.000375 0
-0.000220 -0.000408 0
-0.000206 -0.000439 0
-0.000190 -0.000469 0
-0.000172 -0.000495 0
-0.000152 -0.000519 0
-0.000131 -0.000540 0
-0.000107 -0.000557 0
-0.000082 -0.000571 0
-0.000056 -0.000581 0
-0.000028 -0.000587 0
0.000000 -0.000294 0
0.000000 0.000077 0
-0.000277 0.000133 0
-0.000284 0.000090 0
-0.000290 0.000046 0
-0.000295 0.000002 0
-0.000299 -0.000043 0
-0.000302 -0.000088 0
-0.000304 -0.000133 0
-0.000305 -0.000178 0
-0.000303 -0.000223 0
-0.000300 -0.000267 0
-0.000296 -0.000311 0
-0.000289 -0.000354 0
-0.000280 -0.000396 0
-0.000268 -0.000436 0
-0.000255 -0.000474 0
-0.000238 -0.000509 0
-0.000220 -0.000543 0
-0.000199 -0.000573 0
-0.000176 -0.000600 0
-0.000151 -0.000624 0
-0.000124 -0.000644 0
-0.000095 -0.000659 0
-0.000065 -0.000671 0
-0.000033 -0.000678 0
0.000000 -0.000340 0
0.000000 692150147622764767886908135067570642588137573968859145851963812264661167598603008150577247206977426453741014909103134941997757101085531617663032272764750232662461926171093693244561685425855250002430427991690632570601472.000000 0
-0.000323 0.000140 0
-0.000330 0.000091 0
-0.000337 0.000042 0
-0.000343 -0.000008 0
-0.000347 -0.000059 0
-0.000350 -0.000110 0
-0.000352 -0.000161 0
-0.000353 -0.000212 0
-0.000351 -0.000263 0
-0.000348 -0.000313 0
-0.000342 -0.000363 0
-0.000334 -0.000411 0
-0.000323 -0.000458 0
-0.000310 -0.000504 0
-0.000294 -0.000547 0
-0.000276 -0.000588 0
-0.000254 -0.000626 0
-0.000230 -0.000660 0
-0.000204 -0.000691 0
-0.000174 -0.000718 0
-0.000143 -0.000741 0
-0.000110 -0.000759 0
-0.000074 -0.000772 0
-0.000038 -0.000779 0
0.000000 -0.000391 0
0.000000 -nan 0
-0.000374 0.000147 0
-0.000383 0.000092 0
-0.000390 0.000036 0
-0.000396 -0.000021 0
-0.000401 -0.000078 0
-0.000405 -0.000135 0
-0.000407 -0.000192 0
-0.000407 -0.000250 0
-0.000405 -0.000307 0
-0.000401 -0.000364 0
-0.000394 -0.000420 0
-0.000385 -0.000475 0
-0.000373 -0.000528 0
-0.000357 -0.000580 0
-0.000339 -0.000629 0
-0.000318 -0.000675 0
-0.000293 -0.000718 0
-0.000265 -0.000758 0
-0.000235 -0.000793 0
-0.000201 -0.000823 0
-0.000165 -0.000849 0
-0.000126 -0.000869 0
-0.000086 -0.000884 0
-0.000043 -0.000893 0
0.000000 -0.000448 0
0.000000 0.000092 0
-0.000432 0.000152 0
-0.000441 0.000091 0
-0.000449 0.000028 0
-0.000456 -0.000035 0
-0.000462 -0.000099 0
-0.000466 -0.000163 0
-0.000468 -0.000228 0
-0.000468 -0.000293 0
-0.000466 -0.000357 0
-0.000461 -0.000421 0
-0.000453 -0.000484 0
-0.000443 -0.000546 0
-0.000429 -0.000606 0
-0.000411 -0.000664 0
-0.000390 -0.000720 0
-0.000365 -0.000772 0
-0.000337 -0.000821 0
-0.000305 -0.000866 0
-0.000270 -0.000906 0
-0.000231 -0.000940 0
-0.000189 -0.000969 0
-0.000145 -0.000993 0
-0.000098 -0.001009 0
-0.000050 -0.001020 0
0.000000 -0.000512 0
0.000000 0.000096 0
-0.000498 0.000157 0
-0.000507 0.000088 0
-0.000516 0.000018 0
-0.000524 -0.000052 0
-0.000530 -0.000124 0
-0.000534 -0.000195 0
-0.000536 -0.000268 0
-0.000536 -0.000340 0
-0.000534 -0.000412 0
-0.000528 -0.000484 0
-0.000520 -0.000555 0
-0.000508 -0.000624 0
-0.000492 -0.000692 0
-0.000472 -0.000758 0
-0.000448 -0.000821 0
-0.000419 -0.000880 0
-0.000387 -0.000935 0
-0.000350 -0.000985 0
-0.000310 -0.001031 0
-0.000265 -0.001070 0
-0.000217 -0.001103 0
-0.000166 -0.001129 0
-0.000113 -0.001149 0
-0.000057 -0.001160 0
0.000000 -0.000582 0
0.000000 0.000100 0
-0.000570 0.000161 0
-0.000581 0.000084 0
-0.000590 0.000007 0
-0.000598 -0.000072 0
-0.000605 -0.000151 0
-0.000610 -0.000231 0
-0.000613 -0.000312 0
-0.000613 -0.000392 0
-0.000610 -0.000473 0
-0.000604 -0.000553 0
-0.000594 -0.000633 0
-0.000581 -0.000711 0
-0.000563 -0.000787 0
-0.000540 -0.000861 0
-0.000513 -0.000932 0
-0.000480 -0.000998 0
-0.000443 -0.001061 0
-0.000401 -0.001118 0
-0.000355 -0.001169 0
-0.000304 -0.001214 0
-0.000249 -0.001251 0
-0.000191 -0.001281 0
-0.000129 -0.001303 0
-0.000066 -0.001316 0
0.000000 -0.000660 0
0.000000 0.000103 0
-0.000651 0.000164 0
-0.000662 0.000079 0
-0.000673 -0.000007 0
-0.000682 -0.000094 0
-0.000689 -0.000182 0
-0.000695 -0.000271 0
-0.000698 -0.000360 0
-0.000698 -0.000450 0
-0.000695 -0.000540 0
-0.000689 -0.000629 0
-0.000678 -0.000718 0
-0.000663 -0.000805 0
-0.000642 -0.000891 0
-0.000617 -0.000974 0
-0.000586 -0.001053 0
-0.000549 -0.001129 0
-0.000507 -0.001199 0
-0.000459 -0.001264 0
-0.000406 -0.001322 0
-0.000348 -0.001372 0
-0.000285 -0.001415 0
-0.000218 -0.001449 0
-0.000148 -0.001473 0
-0.000075 -0.001488 0
0.000000 -0.000747 0
0.000000 0.000106 0
-0.000740 0.000166 0
-0.000752 0.000072 0
-0.000764 -0.000023 0
-0.000774 -0.000119 0
-0.000782 -0.000216 0
-0.000788 -0.000314 0
-0.000792 -0.000413 0
-0.000793 -0.000512 0
-0.000790 -0.000612 0
-0.000783 -0.000712 0
-0.000771 -0.000811 0
-0.000754 -0.000909 0
-0.000732 -0.001004 0
-0.000703 -0.001097 0
-0.000669 -0.001187 0
-0.000627 -0.001272 0
-0.000579 -0.001351 0
-0.000525 -0.001424 0
-0.000464 -0.001490 0
-0.000398 -0.001547 0
-0.000326 -0.001595 0
-0.000250 -0.001634 0
-0.000169 -0.001662 0
-0.000086 -0.001679 0
0.000000 -0.000842 0
0.000000 0.000109 0
-0.000837 0.000166 0
-0.000851 0.000063 0
-0.000864 -0.000041 0
-0.000875 -0.000146 0
-0.000885 -0.000253 0
-0.000892 -0.000361 0
-0.000897 -0.000470 0
-0.000898 -0.000580 0
-0.000895 -0.000691 0
-0.000888 -0.000801 0
-0.000876 -0.000911 0
-0.000857 -0.001020 0
-0.000832 -0.001128 0
-0.000800 -0.001232 0
-0.000761 -0.001332 0
-0.000715 -0.001428 0
-0.000661 -0.001517 0
-0.000599 -0.001600 0
-0.000530 -0.001674 0
-0.000455 -0.001739 0
-0.000373 -0.001794 0
-0.000285 -0.001838 0
-0.000193 -0.001869 0
-0.000098 -0.001889 0
0.000000 -0.000948 0
0.000000 0.000110 0
-0.000944 0.000165 0
-0.000959 0.000052 0
-0.000973 -0.000061 0
-0.000986 -0.000177 0
-0.000997 -0.000293 0
-0.001006 -0.000412 0
-0.001012 -0.000532 0
-0.001014 -0.000653 0
-0.001012 -0.000775 0
-0.001005 -0.000898 0
-0.000992 -0.001020 0
-0.000972 -0.001141 0
-0.000944 -0.001261 0
-0.000909 -0.001378 0
-0.000866 -0.001490 0
-0.000814 -0.001598 0
-0.000753 -0.001699 0
-0.000683 -0.001792 0
-0.000605 -0.001876 0
-0.000519 -0.001950 0
-0.000425 -0.002012 0
-0.000326 -0.002062 0
-0.000221 -0.002098 0
-0.000112 -0.002120 0
0.000000 -0.001064 0
0.000000 0.000112 0
-0.001061 0.000162 0
-0.001077 0.000040 0
-0.001093 -0.000084 0
-0.001107 -0.000209 0
-0.001120 -0.000337 0
-0.001131 -0.000466 0
-0.001138 -0.000597 0
-0.001142 -0.000731 0
-0.001141 -0.000865 0
-0.001134 -0.001001 0
-0.001120 -0.001136 0
-0.001099 -0.001271 0
-0.001070 -0.001405 0
-0.001031 -0.001535 0
-0.000983 -0.001662 0
-0.000925 -0.001783 0
-0.000856 -0.001897 0
-0.000778 -0.002002 0
-0.000689 -0.002097 0
-0.000592 -0.002181 0
-0.000485 -0.002252 0
-0.000372 -0.002308 0
-0.000252 -0.002349 0
-0.000128 -0.002374 0
0.000000 -0.001191 0
0.000000 0.000000 0
-0.001187 0.000000 0
-0.001205 0.000000 0
-0.001222 0.000000 0
-0.001239 0.000000 0
-0.001254 0.000000 0
-0.001267 0.000000 0
-0.001277 0.000000 0
-0.001282 0.000000 0
-0.001283 0.000000 0
-0.001277 0.000000 0
-0.001263 0.000000 0
-0.001241 0.000000 0
-0.000568 0.000000 0
-0.000548 0.000000 0
692150147622764767886908135067570642588137573968859145851963812264661167598603008150577247206977426453741014909103134941997757101085531617663032272764750232662461926171093693244561685425855250002430427991690632570601472.000000 0.000000 0
-nan 0.000000 0
-0.000456 0.000000 0
-0.000414 0.000000 0
-0.000367 0.000000 0
-0.000315 0.000000 0
-0.000259 0.000000 0
-0.000198 0.000000 0
-0.000134 0.000000 0
-0.000068 0.000000 0
0.000000 0.000000 0

CELL_DATA 625 
SCALARS pressure float 1 
LOOKUP_TABLE default 
-0.001496
-0.001376
-0.001248
-0.001113
-0.000970
-0.000822
-0.000668
-0.000509
-0.000347
-0.000183
-0.000017
0.000150
0.000315
0.000477
0.000635
0.000787
0.000932
0.001068
0.001192
0.001303
0.001400
0.001481
0.001544
0.001587
0.001609
-0.001609
-0.001475
-0.001331
-0.001180
-0.001022
-0.000857
-0.000686
-0.000511
-0.000332
-0.000150
0.000033
0.000215
0.000396
0.000574
0.000747
0.000913
0.001071
0.001219
0.001354
0.001475
0.001580
0.001667
0.001735
0.001782
0.001806
-0.001755
-0.001600
-0.001436
-0.001263
-0.001082
-0.000894
-0.000701
-0.000502
-0.000300
-0.000095
0.000110
0.000315
0.000518
0.000717
0.000910
0.001096
0.001271
0.001435
0.001585
0.001720
0.001836
0.001933
0.002007
0.002059
0.002085
-0.001934
-0.001752
-0.001561
-0.001359
-0.001150
-0.000933
-0.000709
-0.000481
-0.000249
-0.000015
0.000221
0.000455
0.000686
0.000912
0.001131
0.001342
0.001540
0.001726
0.001895
0.002046
0.002177
0.002286
0.002370
0.002428
0.002457
-0.002148
-0.001933
-0.001706
-0.001470
-0.001224
-0.000970
-0.000709
-0.000443
-0.000174
0.000098
0.000370
0.000641
0.000907
0.001168
0.001420
0.001661
0.001889
0.002100
0.002294
0.002467
0.002616