# vtk DataFile Version 2.0
generated by CFD-lab course output (written by Tobias Neckel) 
ASCII

DATASET STRUCTURED_GRID
DIMENSIONS  101 21 1 
POINTS 2121 float

0.000000 0.000000 0
0.100000 0.000000 0
0.200000 0.000000 0
0.300000 0.000000 0
0.400000 0.000000 0
0.500000 0.000000 0
0.600000 0.000000 0
0.700000 0.000000 0
0.800000 0.000000 0
0.900000 0.000000 0
1.000000 0.000000 0
1.100000 0.000000 0
1.200000 0.000000 0
1.300000 0.000000 0
1.400000 0.000000 0
1.500000 0.000000 0
1.600000 0.000000 0
1.700000 0.000000 0
1.800000 0.000000 0
1.900000 0.000000 0
2.000000 0.000000 0
2.100000 0.000000 0
2.200000 0.000000 0
2.300000 0.000000 0
2.400000 0.000000 0
2.500000 0.000000 0
2.600000 0.000000 0
2.700000 0.000000 0
2.800000 0.000000 0
2.900000 0.000000 0
3.000000 0.000000 0
3.100000 0.000000 0
3.200000 0.000000 0
3.300000 0.000000 0
3.400000 0.000000 0
3.500000 0.000000 0
3.600000 0.000000 0
3.700000 0.000000 0
3.800000 0.000000 0
3.900000 0.000000 0
4.000000 0.000000 0
4.100000 0.000000 0
4.200000 0.000000 0
4.300000 0.000000 0
4.400000 0.000000 0
4.500000 0.000000 0
4.600000 0.000000 0
4.700000 0.000000 0
4.800000 0.000000 0
4.900000 0.000000 0
5.000000 0.000000 0
5.100000 0.000000 0
5.200000 0.000000 0
5.300000 0.000000 0
5.400000 0.000000 0
5.500000 0.000000 0
5.600000 0.000000 0
5.700000 0.000000 0
5.800000 0.000000 0
5.900000 0.000000 0
6.000000 0.000000 0
6.100000 0.000000 0
6.200000 0.000000 0
6.300000 0.000000 0
6.400000 0.000000 0
6.500000 0.000000 0
6.600000 0.000000 0
6.700000 0.000000 0
6.800000 0.000000 0
6.900000 0.000000 0
7.000000 0.000000 0
7.100000 0.000000 0
7.200000 0.000000 0
7.300000 0.000000 0
7.400000 0.000000 0
7.500000 0.000000 0
7.600000 0.000000 0
7.700000 0.000000 0
7.800000 0.000000 0
7.900000 0.000000 0
8.000000 0.000000 0
8.100000 0.000000 0
8.200000 0.000000 0
8.300000 0.000000 0
8.400000 0.000000 0
8.500000 0.000000 0
8.600000 0.000000 0
8.700000 0.000000 0
8.800000 0.000000 0
8.900000 0.000000 0
9.000000 0.000000 0
9.100000 0.000000 0
9.200000 0.000000 0
9.300000 0.000000 0
9.400000 0.000000 0
9.500000 0.000000 0
9.600000 0.000000 0
9.700000 0.000000 0
9.800000 0.000000 0
9.900000 0.000000 0
10.000000 0.000000 0
0.000000 0.100000 0
0.100000 0.100000 0
0.200000 0.100000 0
0.300000 0.100000 0
0.400000 0.100000 0
0.500000 0.100000 0
0.600000 0.100000 0
0.700000 0.100000 0
0.800000 0.100000 0
0.900000 0.100000 0
1.000000 0.100000 0
1.100000 0.100000 0
1.200000 0.100000 0
1.300000 0.100000 0
1.400000 0.100000 0
1.500000 0.100000 0
1.600000 0.100000 0
1.700000 0.100000 0
1.800000 0.100000 0
1.900000 0.100000 0
2.000000 0.100000 0
2.100000 0.100000 0
2.200000 0.100000 0
2.300000 0.100000 0
2.400000 0.100000 0
2.500000 0.100000 0
2.600000 0.100000 0
2.700000 0.100000 0
2.800000 0.100000 0
2.900000 0.100000 0
3.000000 0.100000 0
3.100000 0.100000 0
3.200000 0.100000 0
3.300000 0.100000 0
3.400000 0.100000 0
3.500000 0.100000 0
3.600000 0.100000 0
3.700000 0.100000 0
3.800000 0.100000 0
3.900000 0.100000 0
4.000000 0.100000 0
4.100000 0.100000 0
4.200000 0.100000 0
4.300000 0.100000 0
4.400000 0.100000 0
4.500000 0.100000 0
4.600000 0.100000 0
4.700000 0.100000 0
4.800000 0.100000 0
4.900000 0.100000 0
5.000000 0.100000 0
5.100000 0.100000 0
5.200000 0.100000 0
5.300000 0.100000 0
5.400000 0.100000 0
5.500000 0.100000 0
5.600000 0.100000 0
5.700000 0.100000 0
5.800000 0.100000 0
5.900000 0.100000 0
6.000000 0.100000 0
6.100000 0.100000 0
6.200000 0.100000 0
6.300000 0.100000 0
6.400000 0.100000 0
6.500000 0.100000 0
6.600000 0.100000 0
6.700000 0.100000 0
6.800000 0.100000 0
6.900000 0.100000 0
7.000000 0.100000 0
7.100000 0.100000 0
7.200000 0.100000 0
7.300000 0.100000 0
7.400000 0.100000 0
7.500000 0.100000 0
7.600000 0.100000 0
7.700000 0.100000 0
7.800000 0.100000 0
7.900000 0.100000 0
8.000000 0.100000 0
8.100000 0.100000 0
8.200000 0.100000 0
8.300000 0.100000 0
8.400000 0.100000 0
8.500000 0.100000 0
8.600000 0.100000 0
8.700000 0.100000 0
8.800000 0.100000 0
8.900000 0.100000 0
9.000000 0.100000 0
9.100000 0.100000 0
9.200000 0.100000 0
9.300000 0.100000 0
9.400000 0.100000 0
9.500000 0.100000 0
9.600000 0.100000 0
9.700000 0.100000 0
9.800000 0.100000 0
9.900000 0.100000 0
10.000000 0.100000 0
0.000000 0.200000 0
0.100000 0.200000 0
0.200000 0.200000 0
0.300000 0.200000 0
0.400000 0.200000 0
0.500000 0.200000 0
0.600000 0.200000 0
0.700000 0.200000 0
0.800000 0.200000 0
0.900000 0.200000 0
1.000000 0.200000 0
1.100000 0.200000 0
1.200000 0.200000 0
1.300000 0.200000 0
1.400000 0.200000 0
1.500000 0.200000 0
1.600000 0.200000 0
1.700000 0.200000 0
1.800000 0.200000 0
1.900000 0.200000 0
2.000000 0.200000 0
2.100000 0.200000 0
2.200000 0.200000 0
2.300000 0.200000 0
2.400000 0.200000 0
2.500000 0.200000 0
2.600000 0.200000 0
2.700000 0.200000 0
2.800000 0.200000 0
2.900000 0.200000 0
3.000000 0.200000 0
3.100000 0.200000 0
3.200000 0.200000 0
3.300000 0.200000 0
3.400000 0.200000 0
3.500000 0.200000 0
3.600000 0.200000 0
3.700000 0.200000 0
3.800000 0.200000 0
3.900000 0.200000 0
4.000000 0.200000 0
4.100000 0.200000 0
4.200000 0.200000 0
4.300000 0.200000 0
4.400000 0.200000 0
4.500000 0.200000 0
4.600000 0.200000 0
4.700000 0.200000 0
4.800000 0.200000 0
4.900000 0.200000 0
5.000000 0.200000 0
5.100000 0.200000 0
5.200000 0.200000 0
5.300000 0.200000 0
5.400000 0.200000 0
5.500000 0.200000 0
5.600000 0.200000 0
5.700000 0.200000 0
5.800000 0.200000 0
5.900000 0.200000 0
6.000000 0.200000 0
6.100000 0.200000 0
6.200000 0.200000 0
6.300000 0.200000 0
6.400000 0.200000 0
6.500000 0.200000 0
6.600000 0.200000 0
6.700000 0.200000 0
6.800000 0.200000 0
6.900000 0.200000 0
7.000000 0.200000 0
7.100000 0.200000 0
7.200000 0.200000 0
7.300000 0.200000 0
7.400000 0.200000 0
7.500000 0.200000 0
7.600000 0.200000 0
7.700000 0.200000 0
7.800000 0.200000 0
7.900000 0.200000 0
8.000000 0.200000 0
8.100000 0.200000 0
8.200000 0.200000 0
8.300000 0.200000 0
8.400000 0.200000 0
8.500000 0.200000 0
8.600000 0.200000 0
8.700000 0.200000 0
8.800000 0.200000 0
8.900000 0.200000 0
9.000000 0.200000 0
9.100000 0.200000 0
9.200000 0.200000 0
9.300000 0.200000 0
9.400000 0.200000 0
9.500000 0.200000 0
9.600000 0.200000 0
9.700000 0.200000 0
9.800000 0.200000 0
9.900000 0.200000 0
10.000000 0.200000 0
0.000000 0.300000 0
0.100000 0.300000 0
0.200000 0.300000 0
0.300000 0.300000 0
0.400000 0.300000 0
0.500000 0.300000 0
0.600000 0.300000 0
0.700000 0.300000 0
0.800000 0.300000 0
0.900000 0.300000 0
1.000000 0.300000 0
1.100000 0.300000 0
1.200000 0.300000 0
1.300000 0.300000 0
1.400000 0.300000 0
1.500000 0.300000 0
1.600000 0.300000 0
1.700000 0.300000 0
1.800000 0.300000 0
1.900000 0.300000 0
2.000000 0.300000 0
2.100000 0.300000 0
2.200000 0.300000 0
2.300000 0.300000 0
2.400000 0.300000 0
2.500000 0.300000 0
2.600000 0.300000 0
2.700000 0.300000 0
2.800000 0.300000 0
2.900000 0.300000 0
3.000000 0.300000 0
3.100000 0.300000 0
3.200000 0.300000 0
3.300000 0.300000 0
3.400000 0.300000 0
3.500000 0.300000 0
3.600000 0.300000 0
3.700000 0.300000 0
3.800000 0.300000 0
3.900000 0.300000 0
4.000000 0.300000 0
4.100000 0.300000 0
4.200000 0.300000 0
4.300000 0.300000 0
4.400000 0.300000 0
4.500000 0.300000 0
4.600000 0.300000 0
4.700000 0.300000 0
4.800000 0.300000 0
4.900000 0.300000 0
5.000000 0.300000 0
5.100000 0.300000 0
5.200000 0.300000 0
5.300000 0.300000 0
5.400000 0.300000 0
5.500000 0.300000 0
5.600000 0.300000 0
5.700000 0.300000 0
5.800000 0.300000 0
5.900000 0.300000 0
6.000000 0.300000 0
6.100000 0.300000 0
6.200000 0.300000 0
6.300000 0.300000 0
6.400000 0.300000 0
6.500000 0.300000 0
6.600000 0.300000 0
6.700000 0.300000 0
6.800000 0.300000 0
6.900000 0.300000 0
7.000000 0.300000 0
7.100000 0.300000 0
7.200000 0.300000 0
7.300000 0.300000 0
7.400000 0.300000 0
7.500000 0.300000 0
7.600000 0.300000 0
7.700000 0.300000 0
7.800000 0.300000 0
7.900000 0.300000 0
8.000000 0.300000 0
8.100000 0.300000 0
8.200000 0.300000 0
8.300000 0.300000 0
8.400000 0.300000 0
8.500000 0.300000 0
8.600000 0.300000 0
8.700000 0.300000 0
8.800000 0.300000 0
8.900000 0.300000 0
9.000000 0.300000 0
9.100000 0.300000 0
9.200000 0.300000 0
9.300000 0.300000 0
9.400000 0.300000 0
9.500000 0.300000 0
9.600000 0.300000 0
9.700000 0.300000 0
9.800000 0.300000 0
9.900000 0.300000 0
10.000000 0.300000 0
0.000000 0.400000 0
0.100000 0.400000 0
0.200000 0.400000 0
0.300000 0.400000 0
0.400000 0.400000 0
0.500000 0.400000 0
0.600000 0.400000 0
0.700000 0.400000 0
0.800000 0.400000 0
0.900000 0.400000 0
1.000000 0.400000 0
1.100000 0.400000 0
1.200000 0.400000 0
1.300000 0.400000 0
1.400000 0.400000 0
1.500000 0.400000 0
1.600000 0.400000 0
1.700000 0.400000 0
1.800000 0.400000 0
1.900000 0.400000 0
2.000000 0.400000 0
2.100000 0.400000 0
2.200000 0.400000 0
2.300000 0.400000 0
2.400000 0.400000 0
2.500000 0.400000 0
2.600000 0.400000 0
2.700000 0.400000 0
2.800000 0.400000 0
2.900000 0.400000 0
3.000000 0.400000 0
3.100000 0.400000 0
3.200000 0.400000 0
3.300000 0.400000 0
3.400000 0.400000 0
3.500000 0.400000 0
3.600000 0.400000 0
3.700000 0.400000 0
3.800000 0.400000 0
3.900000 0.400000 0
4.000000 0.400000 0
4.100000 0.400000 0
4.200000 0.400000 0
4.300000 0.400000 0
4.400000 0.400000 0
4.500000 0.400000 0
4.600000 0.400000 0
4.700000 0.400000 0
4.800000 0.400000 0
4.900000 0.400000 0
5.000000 0.400000 0
5.100000 0.400000 0
5.200000 0.400000 0
5.300000 0.400000 0
5.400000 0.400000 0
5.500000 0.400000 0
5.600000 0.400000 0
5.700000 0.400000 0
5.800000 0.400000 0
5.900000 0.400000 0
6.000000 0.400000 0
6.100000 0.400000 0
6.200000 0.400000 0
6.300000 0.400000 0
6.400000 0.400000 0
6.500000 0.400000 0
6.600000 0.400000 0
6.700000 0.400000 0
6.800000 0.400000 0
6.900000 0.400000 0
7.000000 0.400000 0
7.100000 0.400000 0
7.200000 0.400000 0
7.300000 0.400000 0
7.400000 0.400000 0
7.500000 0.400000 0
7.600000 0.400000 0
7.700000 0.400000 0
7.800000 0.400000 0
7.900000 0.400000 0
8.000000 0.400000 0
8.100000 0.400000 0
8.200000 0.400000 0
8.300000 0.400000 0
8.400000 0.400000 0
8.500000 0.400000 0
8.600000 0.400000 0
[...]
POINT_DATA 2121 

VECTORS velocity float
1.000000 0.000000 0
-0.000014 0.000000 0
-0.000043 0.000000 0
-0.000089 0.000000 0
-0.000152 0.000000 0
-0.000229 0.000000 0
-0.000320 0.000000 0
-0.000404 0.000000 0
-0.000468 0.000000 0
-0.000510 0.000000 0
-0.000530 0.000000 0
-0.000532 0.000000 0
-0.000513 0.000000 0
-0.000463 0.000000 0
-0.000359 0.000000 0
-0.000165 0.000000 0
0.000161 0.000000 0
0.000635 0.000000 0
0.001230 0.000000 0
0.001871 0.000000 0
0.002476 0.000000 0
0.002979 0.000000 0
0.003349 0.000000 0
0.003577 0.000000 0
0.003671 0.000000 0
0.003638 0.000000 0
0.003487 0.000000 0
0.003224 0.000000 0
0.002856 0.000000 0
0.002385 0.000000 0
0.001812 0.000000 0
0.001132 0.000000 0
0.000329 0.000000 0
-0.000622 0.000000 0
-0.001778 0.000000 0
-0.003217 0.000000 0
-0.004900 0.000000 0
-0.006725 0.000000 0
-0.008499 0.000000 0
-0.009993 0.000000 0
-0.011012 0.000000 0
-0.011418 0.000000 0
-0.011110 0.000000 0
-0.010011 0.000000 0
-0.008088 0.000000 0
-0.005413 0.000000 0
-0.002298 0.000000 0
0.000756 0.000000 0
0.003636 0.000000 0
0.006249 0.000000 0
0.008504 0.000000 0
0.010330 0.000000 0
0.011673 0.000000 0
0.012485 0.000000 0
0.012718 0.000000 0
0.012327 0.000000 0
0.011288 0.000000 0
0.009635 0.000000 0
0.007500 0.000000 0
0.005107 0.000000 0
0.002738 0.000000 0
0.000661 0.000000 0
-0.000909 0.000000 0
-0.001985 0.000000 0
-0.002773 0.000000 0
-0.003469 0.000000 0
-0.004199 0.000000 0
-0.005028 0.000000 0
-0.005973 0.000000 0
-0.006990 0.000000 0
-0.007987 0.000000 0
-0.008847 0.000000 0
-0.009455 0.000000 0
-0.009715 0.000000 0
-0.009544 0.000000 0
-0.008878 0.000000 0
-0.007666 0.000000 0
-0.005889 0.000000 0
-0.003611 0.000000 0
-0.001065 0.000000 0
0.001469 0.000000 0
0.003954 0.000000 0
0.006300 0.000000 0
0.008394 0.000000 0
0.010075 0.000000 0
0.011104 0.000000 0
0.011196 0.000000 0
0.010184 0.000000 0
0.008217 0.000000 0
0.005790 0.000000 0
0.003498 0.000000 0
0.001760 0.000000 0
0.000716 0.000000 0
0.000213 0.000000 0
0.000006 0.000000 0
-0.000101 0.000000 0
-0.000213 0.000000 0
-0.000351 0.000000 0
-0.000461 0.000000 0
-0.000431 0.000000 0
0.000000 0.000000 0
1.000000 -0.010070 0
1.021028 -0.031142 0
1.064679 -0.053972 0
1.133025 -0.077986 0
1.227705 -0.101063 0
1.346843 -0.120440 0
1.489549 -0.125997 0
1.621054 -0.111785 0
1.723370 -0.086802 0
1.794729 -0.060694 0
1.840159 -0.038697 0
1.866511 -0.022603 0
1.880552 -0.012265 0
1.887763 -0.006585 0
1.892159 -0.004103 0
1.896198 -0.003164 0
1.900473 -0.002109 0
1.903738 0.000358 0
1.903592 0.004793 0
1.897678 0.010934 0
1.884475 0.018004 0
1.863573 0.025133 0
1.835470 0.031653 0
1.801172 0.037180 0
1.761877 0.041552 0
1.718818 0.044731 0
1.673199 0.046729 0
1.626187 0.047568 0
1.578920 0.047256 0
1.532535 0.045770 0
1.488204 0.043042 0
1.447190 0.038943 0
1.410916 0.033270 0
1.381026 0.025693 0
1.359429 0.015671 0
1.348318 0.002618 0
1.350203 -0.013317 0
1.367509 -0.031007 0
1.401471 -0.048623 0
1.451267 -0.063989 0
1.514146 -0.075223 0
1.586048 -0.081024 0
1.662058 -0.080575 0
1.736583 -0.073377 0
1.803484 -0.059307 0
1.856320 -0.039088 0
1.889010 -0.015094 0
1.897336 0.009457 0
1.881052 0.032698 0
1.841859 0.053883 0
1.782401 0.072285 0
1.705997 0.087329 0
1.616436 0.098583 0
1.517854 0.105682 0
1.414684 0.108250 0
1.311629 0.105882 0
1.213592 0.098267 0
1.125435 0.085458 0
1.051435 0.068209 0
0.994497 0.048149 0
0.955403 0.027601 0
0.932601 0.009080 0
0.922851 -0.005354 0
0.922479 -0.015306 0
0.928423 -0.022084 0
0.939111 -0.027345 0
0.954626 -0.032358 0
0.976002 -0.037867 0
1.004708 -0.044146 0
1.042029 -0.050976 0
1.088404 -0.057710 0
1.143137 -0.063472 0
1.204470 -0.067376 0
1.269837 -0.068658 0
1.336117 -0.066720 0
1.399844 -0.061116 0
1.457350 -0.051553 0
1.504879 -0.038011 0
1.538784 -0.021078 0
1.555930 -0.002376 0
1.554592 0.016373 0
1.535123 0.034333 0
1.498780 0.050932 0
1.447696 0.065364 0
1.385011 0.076461 0
1.315107 0.082535 0
1.243729 0.081650 0
1.177490 0.072707 0
1.122460 0.056759 0
1.082355 0.037222 0
1.057488 0.018415 0
1.045201 0.003635 0
1.041419 -0.005849 0
1.042338 -0.010703 0
1.045410 -0.012428 0
1.049332 -0.012086 0
1.053345 -0.009659 0
1.056063 -0.003758 0
1.054067 0.008620 0
1.040523 0.034472 0
1.000000 0.052464 0
1.000000 -0.021040 0
1.021738 -0.064697 0
1.067069 -0.112008 0
1.139530 -0.163037 0
1.243611 -0.213828 0
1.380382 -0.261855 0
1.563945 -0.274221 0
1.710888 -0.233831 0
1.808351 -0.173685 0
1.867498 -0.116798 0
1.900116 -0.071791 0
1.915390 -0.040402 0
1.921198 -0.021261 0
1.922891 -0.011616 0
1.924299 -0.008444 0
1.928126 -0.008322 0
1.934998 -0.007548 0
1.943007 -0.003128 0
1.947961 0.006051 0
1.945956 0.019109 0
1.935161 0.034096 0
1.915483 0.048996 0
1.887969 0.062391 0
1.854044 0.073584 0
1.815115 0.082345 0
1.772478 0.088669 0
1.727325 0.092621 0
1.680777 0.094268 0
1.633902 0.093642 0
1.587742 0.090707 0
1.543348 0.085335 0
1.501840 0.077277 0
1.464469 0.066154 0
1.432662 0.051477 0
1.407924 0.032697 0
1.391428 0.009215 0
1.383916 -0.019202 0
1.387220 -0.051279 0
1.403203 -0.083769 0
1.432092 -0.112686 0
1.473020 -0.134792 0
1.524452 -0.147924 0
1.583855 -0.150547 0
1.647439 -0.141438 0
1.710273 -0.119749 0
1.766526 -0.085538 0
1.809494 -0.041027 0
1.831875 0.007946 0
1.829737 0.055465 0
1.804624 0.098639 0
1.759228 0.135850 0
1.696968 0.165954 0
1.621686 0.188131 0
1.537509 0.201739 0
1.448743 0.206214 0
1.359762 0.201080 0
1.274820 0.186182 0
1.197753 0.162146 0
1.131520 0.130927 0
1.077628 0.096020 0
1.035639 0.061884 0
1.003195 0.032540 0
0.976908 0.010110 0
0.953865 -0.005583 0
0.932384 -0.016644 0
0.912959 -0.026215 0
0.898538 -0.036902 0
0.893546 -0.050093 0
0.901233 -0.066038 0
0.922898 -0.083707 0
0.957912 -0.101119 0
1.004284 -0.116078 0
1.059231 -0.126711 0
1.119571 -0.131657 0
1.181967 -0.130019 0
1.243076 -0.121245 0
1.299633 -0.105046 0
1.348515 -0.081446 0
1.386770 -0.051062 0
1.411634 -0.015819 0
1.420731 0.020795 0
1.413774 0.055800 0
1.392061 0.087415 0
1.357973 0.113758 0
1.314921 0.132578 0
1.267176 0.141270 0
1.219342 0.137605 0
1.175417 0.121257 0
1.137848 0.095123 0
1.107167 0.064959 0
1.082366 0.037142 0
1.061772 0.016057 0
1.044029 0.002850 0
1.028666 -0.004003 0
1.015894 -0.007006 0
1.006366 -0.007948 0
1.000831 -0.006743 0
0.999580 -0.000734 0
1.001716 0.015527 0
1.004194 0.054054 0
1.000000 0.080953 0
1.000000 -0.031817 0
1.020432 -0.098222 0
1.064008 -0.171769 0
1.136346 -0.254532 0
1.246514 -0.341919 0
1.403398 -0.440778 0
1.654481 -0.456506 0
1.795392 -0.356194 0
1.858551 -0.243416 0
1.883854 -0.152463 0
1.889727 -0.086592 0
1.883969 -0.043688 0
1.875304 -0.019769 0
1.866838 -0.009689 0
1.861411 -0.009341 0
1.862256 -0.013867 0
1.870791 -0.016993 0
1.885884 -0.012608 0
1.901697 0.001841 0
1.908715 0.023730 0
1.903279 0.048473 0
1.886534 0.072322 0
1.861029 0.093088 0
1.829028 0.110029 0
1.792159 0.123114 0
1.751647 0.132517 0
1.708531 0.138426 0
1.663753 0.140987 0
1.618187 0.140288 0
1.572646 0.136320 0
1.527898 0.128939 0
1.484704 0.117818 0
1.443887 0.102443 0
1.406433 0.082234 0
1.373495 0.056901 0
1.345843 0.026621 0
1.322590 -0.009114 0
1.301545 -0.050298 0
1.285554 -0.093500 0
1.280154 -0.133812 0
1.289970 -0.167588 0
1.317117 -0.191864 0
1.360072 -0.203566 0
1.414515 -0.199799 0
1.474778 -0.178399 0
1.534798 -0.138315 0
1.588236 -0.080448 0
1.627920 -0.010791 0
1.646360 0.059945 0
1.643346 0.124387 0
1.621130 0.179936 0
1.582582 0.224866 0
1.530974 0.258037 0
1.469854 0.278620 0
1.402907 0.285992 0
1.333797 0.279801 0
1.265945 0.260272 0
1.202270 0.228753 0
1.144862 0.188329 0
1.094454 0.144026 0
1.049670 0.102028 0
1.006755 0.067807 0
0.961141 0.043972 0
0.910813 0.029214 0
0.858840 0.018818 0
0.811982 0.006496 0
0.777037 -0.012950 0
0.758633 -0.040567 0
0.758714 -0.073502 0
0.776167 -0.107660 0
0.808299 -0.139101 0
0.851915 -0.164795 0
0.903747 -0.182666 0
0.960557 -0.191399 0
1.019203 -0.190230 0
1.076695 -0.178786 0
1.130268 -0.156997 0
1.177434 -0.125152 0
1.216047 -0.084202 0
1.244340 -0.036341 0
1.260782 0.014229 0
1.264655 0.062998 0
1.256968 0.106729 0
1.239684 0.142499 0
1.215525 0.167253 0
1.187586 0.178109 0
1.158588 0.173405 0
1.130056 0.154196 0
1.101995 0.125003 0
1.073443 0.092699 0
1.043583 0.063804 0
1.012699 0.041967 0
0.982443 0.027252 0
0.955326 0.017427 0
0.933846 0.009867 0
0.919882 0.002973 0
0.914580 -0.002878 0
0.918801 -0.004648 0
0.933454 0.004000 0
0.959879 0.036183 0
1.000000 0.059796 0
1.000000 -0.041481 0
1.016391 -0.128715 0
1.051923 -0.227925 0
1.113380 -0.345547 0
1.214437 -0.480885 0
1.378696 -0.669826 0
1.711392 -0.666219 0
1.774074 -0.437905 0
1.750726 -0.262150 0
1.718498 -0.147977 0
1.691049 -0.071910 0
1.655676 -0.025982 0
1.627257 -0.004133 0
1.603543 0.002274 0
1.587018 -0.003864 0
1.581132 -0.017706 0
1.585447 -0.031180 0
1.604329 -0.034037 0
1.636905 -0.016784 0
1.671690 0.017523 0
1.689920 0.056274 0
1.689412 0.091242 0
1.677063 0.119893 0
1.657065 0.142449 0
1.631526 0.159722 0
1.601603 0.172294 0
1.568112 0.180512 0
1.531730 0.184608 0
1.493039 0.184744 0
1.452494 0.180992 0
1.410354 0.173273 0
1.366556 0.161284 0
1.320512 0.144420 0
1.271004 0.121864 0
1.216641 0.093283 0
1.157367 0.060115 0
1.096256 0.025092 0
1.038773 -0.014247 0
0.992015 -0.062383 0
0.966755 -0.117107 0
0.968374 -0.171760 0
0.994899 -0.218030 0
1.040865 -0.247949 0
1.099744 -0.256148 0
1.165182 -0.240037 0
1.231584 -0.199001 0
1.294195 -0.134154 0
1.348537 -0.050182 0
1.388225 0.040034 0
1.409268 0.123863 0
1.413383 0.196609 0
1.402425 0.256105 0
1.378598 0.300854 0
1.344437 0.329802 0
1.302682 0.342266 0
1.256063 0.338038 0
1.207044 0.317705 0
1.157500 0.283224 0
1.108167 0.238737 0
1.057854 0.191207 0
1.003143 0.149579 0
0.940126 0.121065 0
0.868184 0.106048 0
0.792724 0.096714 0
0.723640 0.082183 0
0.670293 0.055584 0
0.637340 0.016443 0
0.624349 -0.031775 0
0.629086 -0.083577 0
0.648711 -0.133296 0
0.680436 -0.176872 0
0.721635 -0.211530 0
0.769701 -0.235358 0
0.821967 -0.247118 0
0.875748 -0.246161 0
0.928476 -0.232314 0
0.977861 -0.205790 0
1.021999 -0.167230 0
1.059416 -0.117973 0
1.089065 -0.060559 0
1.110186 0.000476 0
1.121987 0.059609 0
1.125307 0.112381 0
1.121554 0.155196 0
1.112506 0.184671 0
1.099816 0.198202 0
1.084339 0.195130 0
1.065700 0.177845 0
1.042617 0.151730 0
1.014026 0.123367 0
0.980310 0.097882 0
0.943797 0.077192 0
0.908205 0.060218 0
0.877505 0.044589 0
0.854966 0.028432 0
0.842699 0.011313 0
0.841934 -0.005667 0
0.853937 -0.019614 0
0.880727 -0.025557 0
0.926274 -0.012496 0
1.000000 -0.000279 0
1.000000 -0.048216 0
1.008306 -0.150155 0
1.026331 -0.268762 0
1.058897 -0.417049 0
1.118649 -0.607238 0
1.239299 -0.937738 0
1.580431 -0.851888 0
1.448093 -0.395532 0
1.282610 -0.187843 0
1.185940 -0.092790 0
1.134630 -0.023772 0
1.018490 0.020101 0
0.963265 0.032361 0
0.915456 0.030547 0
0.878251 0.013066 0
0.878892 -0.012298 0
0.899929 -0.040193 0
0.947729 -0.064069 0
1.016001 -0.065523 0
1.097251 -0.029289 0
1.175436 0.030748 0
1.230004 0.085177 0
1.260504 0.125432 0
1.276017 0.155562 0
1.280246 0.178572 0
1.275026 0.195927 0
1.261399 0.208295 0
1.239836 0.216055 0
1.210269 0.219520 0
1.172128 0.219001 0
1.124472 0.214873 0
1.066291 0.207657 0
0.997044 0.197991 0
0.917494 0.186101 0
0.830818 0.170534 0
0.743821 0.147002 0
0.667383 0.109476 0
0.613756 0.053938 0
0.588279 -0.021486 0
0.590653 -0.110176 0
0.617205 -0.195737 0
0.662642 -0.264359 0
0.721619 -0.308416 0
0.789091 -0.324121 0
0.860351 -0.310243 0
0.931388 -0.267333 0
0.999258 -0.197406 0
1.061945 -0.104826 0
1.116873 -0.000791 0
1.157580 0.099225 0
1.184519 0.186774 0
1.198573 0.259646 0
1.200675 0.316020 0
1.192130 0.354531 0
1.174516 0.374362 0
1.149424 0.375434 0
1.118083 0.358830 0
1.080770 0.327626 0
1.036042 0.287970 0
0.980534 0.249045 0
0.910959 0.219752 0
0.828326 0.202761 0
0.740652 0.191370 0
0.660129 0.173753 0
0.596696 0.141243 0
0.554235 0.092792 0
0.531742 0.032989 0
0.526160 -0.032318 0
0.534161 -0.097868 0
0.553475 -0.159015 0
0.582345 -0.212030 0
0.619055 -0.254064 0
0.661722 -0.283003 0
0.708230 -0.297450 0
0.756297 -0.296743 0
0.803665 -0.280905 0
0.848360 -0.250525 0
0.888905 -0.206712 0
0.924386 -0.151273 0
0.954365 -0.087116 0
0.978644 -0.018698 0
0.996638 0.047872 0
1.008617 0.107157 0
1.015388 0.155295 0
1.017746 0.188987 0
1.016006 0.206271 0
1.009582 0.207516 0
0.997048 0.195912 0
0.976948 0.176672 0
0.949020 0.155001 0
0.915014 0.134029 0
0.878514 0.114067 0
0.843903 0.093539 0
0.815187 0.070661 0
0.795335 0.044669 0
0.786339 0.016000 0
0.789923 -0.014122 0
0.808263 -0.043445 0
0.844597 -0.068341 0
0.904008 -0.083095 0
1.000000 -0.088559 0
1.000000 -0.049795 0
0.996699 -0.155056 0
0.988894 -0.278520 0
0.975054 -0.437868 0
0.954104 -0.661290 0
0.932874 -1.131612 0
0.719585 -0.734930 0
-0.000201 0.000000 0
-0.000074 0.000000 0
-0.000015 0.000000 0
0.000030 0.095538 0
0.143201 0.145380 0
0.152127 0.098898 0
0.122105 0.087286 0
0.145300 0.032697 0
0.199956 -0.039387 0
0.239267 -0.100019 0
0.314088 -0.150112 0
0.396564 -0.166309 0
0.480630 -0.141915 0
0.572479 -0.076482 0
0.661219 0.006171 0
0.730194 0.073877 0
0.779082 0.122703 0
0.811718 0.160709 0
0.829856 0.191137 0
0.834217 0.215698 0
0.824716 0.235733 0
0.800675 0.252448 0
0.761179 0.266785 0
0.705698 0.279106 0
0.635021 0.288708 0
0.552442 0.293213 0
0.464723 0.288086 0
0.381947 0.266951 0
0.315275 0.223546 0
0.273076 0.155152 0
0.258341 0.064852 0
0.269875 -0.039286 0
0.300048 -0.146038 0
0.342233 -0.243753 0
0.394518 -0.322449 0
0.455668 -0.374403 0
0.523545 -0.394886 0
0.595027 -0.382339 0
0.666832 -0.337913 0
0.736622 -0.264715 0
0.803470 -0.167802 0
0.866997 -0.055605 0
0.922896 0.056213 0
0.967536 0.155611 0
1.001540 0.239944 0
1.024861 0.307292 0
1.037708 0.355957 0
1.040514 0.384967 0
1.033619 0.394466 0
1.016761 0.386355 0
0.988422 0.365261 0
0.945627 0.338968 0
0.885481 0.316285 0
0.808789 0.301783 0
0.722941 0.291367 0
0.640079 0.274241 0
0.571032 0.240665 0
0.520674 0.188072 0
0.488485 0.120533 0
0.471856 0.044513 0
0.468265 -0.034198 0
0.475527 -0.110897 0
0.491974 -0.181485 0
0.516273 -0.242456 0
0.547169 -0.290911 0
0.583319 -0.324537 0
0.623184 -0.341698 0
0.664976 -0.341601 0
0.706769 -0.324382 0
0.746787 -0.291035 0
0.783747 -0.243260 0
0.817038 -0.183437 0
0.846613 -0.114822 0
0.872656 -0.041802 0
0.895051 0.029631 0
0.913307 0.093627 0
0.927590 0.146063 0
0.937779 0.184048 0
0.943139 0.206360 0
0.942239 0.214083 0
0.933412 0.210475 0
0.915723 0.199754 0
0.889899 0.185296 0
0.858572 0.168383 0
0.825647 0.148297 0
0.795230 0.123540 0
0.770785 0.093153 0
0.754917 0.057275 0
0.749710 0.016721 0
0.757471 -0.027596 0
0.781030 -0.074293 0
0.824299 -0.121306 0
0.892998 -0.167905 0
1.000000 -0.193224 0
1.000000 -0.044923 0
0.984709 -0.139058 0
0.950451 -0.247121 0
0.888798 -0.382263 0
0.782681 -0.565062 0
0.599398 -0.843309 0
0.000000 0.000753 0
-0.088709 0.508279 0
0.035787 0.000000 0
0.099321 0.000000 0
0.128683 0.238572 0
0.129810 0.244203 0
0.179651 0.053456 0
0.095164 0.037371 0
0.061317 -0.064787 0
-0.013861 -0.106268 0
-0.032943 -0.154328 0
0.024529 -0.221369 0
0.075587 -0.232068 0
0.115008 -0.205207 0
0.157229 -0.149845 0
0.214550 -0.072542 0
0.277467 0.007565 0
0.330098 0.074035 0
0.369891 0.127795 0
0.396941 0.173425 0
0.410369 0.213430 0
0.409288 0.249593 0
0.393036 0.283053 0
0.361688 0.313975 0
0.316718 0.341027 0
0.261652 0.360908 0
0.202339 0.368284 0
0.146297 0.356591 0
0.100841 0.319977 0
0.070949 0.255868 0
0.058168 0.166405 0
0.061634 0.057135 0
0.080311 -0.063198 0
0.111348 -0.182539 0
0.150570 -0.290212 0
0.197390 -0.377798 0
0.251871 -0.437447 0
0.313612 -0.463485 0
0.380962 -0.453536 0
0.451157 -0.408933 0
0.521517 -0.334049 0
0.590706 -0.235205 0
0.658639 -0.120221 0
0.724448 -0.001319 0
0.781741 0.108125 0
0.830057 0.202316 0
0.868957 0.279846 0
0.897836 0.338874 0
0.916087 0.378446 0
0.922784 0.399182 0
0.916204 0.404023 0
0.893639 0.398756 0
0.852386 0.390907 0
0.792448 0.385878 0
0.719333 0.382287 0
0.643608 0.371467 0
0.576199 0.343274 0
0.523356 0.293154 0
0.485880 0.223785 0
0.461913 0.141606 0
0.449416 0.053205 0
0.446794 -0.035994 0
0.452599 -0.121582 0
0.465602 -0.199766 0
0.484777 -0.267229 0
0.509202 -0.321115 0
0.538002 -0.359023 0
0.570269 -0.379111 0
0.604917 -0.380332 0
0.640589 -0.362720 0
0.675786 -0.327508 0
0.709243 -0.276967 0
0.740298 -0.214143 0
0.768943 -0.142739 0
0.795514 -0.067141 0
0.820173 0.007216 0
0.842101 0.074613 0
0.860820 0.130819 0
0.875484 0.173433 0
0.884729 0.201806 0
0.886880 0.217238 0
0.880596 0.222423 0
0.865684 0.220180 0
0.843593 0.212148 0
0.817201 0.198276 0
0.790053 0.177404 0
0.765531 0.148396 0
0.746450 0.110969 0
0.735162 0.065739 0
0.733960 0.013440 0
0.745611 -0.045447 0
0.773135 -0.110278 0
0.820408 -0.180314 0
0.892608 -0.258801 0
1.000000 -0.303653 0
1.000000 -0.034512 0
0.976330 -0.105516 0
0.924383 -0.182612 0
0.833063 -0.270101 0
0.680576 -0.371894 0
0.426841 -0.489021 0
0.000000 0.000687 0
1.000000 0.276308 0
1.000000 0.000000 0
1.000000 0.000000 0
0.000000 0.000000 0
-0.000387 0.000000 0
-0.000516 0.133543 0
0.071185 0.205619 0
0.030450 0.141721 0
-0.103976 0.054871 0
-0.095875 -0.138411 0
-0.076069 -0.258645 0
-0.071635 -0.256791 0
-0.076422 -0.223560 0
-0.075541 -0.176027 0
-0.060516 -0.114071 0
-0.028703 -0.041675 0
0.009672 0.030276 0
0.044764 0.093863 0
0.072928 0.150656 0
0.091833 0.203347 0
0.099992 0.253062 0
0.096820 0.300044 0
0.082930 0.343100 0
0.060382 0.379137 0
0.032676 0.403082 0
0.004265 0.408564 0
-0.020305 0.389579 0
-0.037531 0.342295 0
-0.045379 0.266215 0
-0.042909 0.164463 0
-0.029948 0.042703 0
-0.007371 -0.089005 0
0.021065 -0.216301 0
0.052937 -0.329800 0
0.088380 -0.423755 0
0.128890 -0.490630 0
0.176439 -0.523982 0
0.232147 -0.519889 0
0.295155 -0.478472 0
0.362848 -0.404270 0
0.432412 -0.304930 0
0.502199 -0.189352 0
0.571524 -0.066894 0
0.636499 0.049997 0
0.693399 0.152723 0
0.742062 0.239509 0
0.781288 0.308822 0
0.809551 0.360014 0
0.824835 0.394344 0
0.824527 0.415495 0
0.806037 0.429074 0
0.768635 0.440155 0
0.715774 0.449333 0
0.655622 0.450618 0
0.598080 0.434497 0
0.550157 0.394487 0
0.513923 0.330979 0
0.488292 0.249511 0
0.471614 0.156992 0
0.462734 0.059627 0
0.460847 -0.037386 0
0.465121 -0.129709 0
0.474722 -0.213667 0
0.488862 -0.286061 0
0.506798 -0.344141 0
0.527909 -0.385608 0
0.551763 -0.408617 0
0.578036 -0.411926 0
0.606254 -0.395255 0
0.635564 -0.359693 0
0.664869 -0.307777 0
0.693262 -0.243142 0
0.720379 -0.170042 0
0.746318 -0.093037 0
0.771213 -0.016961 0
0.794356 0.052975 0
0.814743 0.112675 0
0.831152 0.160134 0
0.842051 0.194960 0
0.845975 0.218212 0
0.842132 0.231666 0
0.830938 0.236752 0
0.814115 0.233775 0
0.794267 0.221918 0
0.774218 0.199963 0
0.756525 0.167138 0
0.743419 0.123516 0
0.737070 0.069760 0
0.739935 0.006267 0
0.754855 -0.066775 0
0.784580 -0.149095 0
0.832320 -0.240784 0
0.901937 -0.347501 0
1.000000 -0.409248 0
1.000000 -0.021260 0
0.973716 -0.063450 0
0.917234 -0.103857 0
0.821287 -0.138460 0
0.668113 -0.158842 0
0.425341 -0.162736 0
0.000000 0.000690 0
1.000000 0.081377 0
1.000000 0.000000 0
1.000000 0.000000 0
0.000000 0.000000 0
0.231651 0.000000 0
0.225891 0.267967 0
0.164297 0.298248 0
0.236372 0.110372 0
0.167633 0.020055 0
0.124401 -0.182237 0
-0.010471 -0.245611 0
-0.095125 -0.231718 0
-0.139656 -0.201304 0
-0.166135 -0.165754 0
-0.177245 -0.119383 0
-0.172732 -0.062625 0
-0.154136 0.000564 0
-0.129294 0.064535 0
-0.104443 0.126353 0
-0.082810 0.186363 0
-0.066414 0.244602 0
-0.056184 0.300111 0
-0.051847 0.350409 0
-0.052105 0.391276 0
-0.054976 0.417021 0
-0.058335 0.421261 0
-0.059586 0.398383 0
-0.056566 0.345048 0
-0.047331 0.261241 0
-0.030824 0.150969 0
-0.008076 0.021592 0
0.016538 -0.114215 0
0.039489 -0.242851 0
0.061303 -0.357532 0
0.081824 -0.453755 0
0.102816 -0.525511 0
0.127878 -0.566747 0
0.161327 -0.572257 0
0.206102 -0.539638 0
0.261998 -0.471310 0
0.325924 -0.374562 0
0.393937 -0.259338 0
0.462984 -0.135623 0
0.530710 -0.013755 0
0.591760 0.096748 0
0.645133 0.191953 0
0.689541 0.271380 0
0.722918 0.334894 0
0.742750 0.384201 0
0.746565 0.422816 0
0.733130 0.454643 0
0.704172 0.481165 0
0.665293 0.498887 0
0.624494 0.499976 0
0.588606 0.476926 0
0.560566 0.427427 0
0.539913 0.355014 0