# vtk DataFile Version 2.0
generated by CFD-lab course output (written by Tobias Neckel) 
ASCII

DATASET STRUCTURED_GRID
DIMENSIONS  101 21 1 
POINTS 2121 float

0.000000 0.000000 0
0.100000 0.000000 0
0.200000 0.000000 0
0.300000 0.000000 0
0.400000 0.000000 0
0.500000 0.000000 0
0.600000 0.000000 0
0.700000 0.000000 0
0.800000 0.000000 0
0.900000 0.000000 0
1.000000 0.000000 0
1.100000 0.000000 0
1.200000 0.000000 0
1.300000 0.000000 0
1.400000 0.000000 0
1.500000 0.000000 0
1.600000 0.000000 0
1.700000 0.000000 0
1.800000 0.000000 0
1.900000 0.000000 0
2.000000 0.000000 0
2.100000 0.000000 0
2.200000 0.000000 0
2.300000 0.000000 0
2.400000 0.000000 0
2.500000 0.000000 0
2.600000 0.000000 0
2.700000 0.000000 0
2.800000 0.000000 0
2.900000 0.000000 0
3.000000 0.000000 0
3.100000 0.000000 0
3.200000 0.000000 0
3.300000 0.000000 0
3.400000 0.000000 0
3.500000 0.000000 0
3.600000 0.000000 0
3.700000 0.000000 0
3.800000 0.000000 0
3.900000 0.000000 0
4.000000 0.000000 0
4.100000 0.000000 0
4.200000 0.000000 0
4.300000 0.000000 0
4.400000 0.000000 0
4.500000 0.000000 0
4.600000 0.000000 0
4.700000 0.000000 0
4.800000 0.000000 0
4.900000 0.000000 0
5.000000 0.000000 0
5.100000 0.000000 0
5.200000 0.000000 0
5.300000 0.000000 0
5.400000 0.000000 0
5.500000 0.000000 0
5.600000 0.000000 0
5.700000 0.000000 0
5.800000 0.000000 0
5.900000 0.000000 0
6.000000 0.000000 0
6.100000 0.000000 0
6.200000 0.000000 0
6.300000 0.000000 0
6.400000 0.000000 0
6.500000 0.000000 0
6.600000 0.000000 0
6.700000 0.000000 0
6.800000 0.000000 0
6.900000 0.000000 0
7.000000 0.000000 0
7.100000 0.000000 0
7.200000 0.000000 0
7.300000 0.000000 0
7.400000 0.000000 0
7.500000 0.000000 0
7.600000 0.000000 0
7.700000 0.000000 0
7.800000 0.000000 0
7.900000 0.000000 0
8.000000 0.000000 0
8.100000 0.000000 0
8.200000 0.000000 0
8.300000 0.000000 0
8.400000 0.000000 0
8.500000 0.000000 0
8.600000 0.000000 0
8.700000 0.000000 0
8.800000 0.000000 0
8.900000 0.000000 0
9.000000 0.000000 0
9.100000 0.000000 0
9.200000 0.000000 0
9.300000 0.000000 0
9.400000 0.000000 0
9.500000 0.000000 0
9.600000 0.000000 0
9.700000 0.000000 0
9.800000 0.000000 0
9.900000 0.000000 0
10.000000 0.000000 0
0.000000 0.100000 0
0.100000 0.100000 0
0.200000 0.100000 0
0.300000 0.100000 0
0.400000 0.100000 0
0.500000 0.100000 0
0.600000 0.100000 0
0.700000 0.100000 0
0.800000 0.100000 0
0.900000 0.100000 0
1.000000 0.100000 0
1.100000 0.100000 0
1.200000 0.100000 0
1.300000 0.100000 0
1.400000 0.100000 0
1.500000 0.100000 0
1.600000 0.100000 0
1.700000 0.100000 0
1.800000 0.100000 0
1.900000 0.100000 0
2.000000 0.100000 0
2.100000 0.100000 0
2.200000 0.100000 0
2.300000 0.100000 0
2.400000 0.100000 0
2.500000 0.100000 0
2.600000 0.100000 0
2.700000 0.100000 0
2.800000 0.100000 0
2.900000 0.100000 0
3.000000 0.100000 0
3.100000 0.100000 0
3.200000 0.100000 0
3.300000 0.100000 0
3.400000 0.100000 0
3.500000 0.100000 0
3.600000 0.100000 0
3.700000 0.100000 0
3.800000 0.100000 0
3.900000 0.100000 0
4.000000 0.100000 0
4.100000 0.100000 0
4.200000 0.100000 0
4.300000 0.100000 0
4.400000 0.100000 0
4.500000 0.100000 0
4.600000 0.100000 0
4.700000 0.100000 0
4.800000 0.100000 0
4.900000 0.100000 0
5.000000 0.100000 0
5.100000 0.100000 0
5.200000 0.100000 0
5.300000 0.100000 0
5.400000 0.100000 0
5.500000 0.100000 0
5.600000 0.100000 0
5.700000 0.100000 0
5.800000 0.100000 0
5.900000 0.100000 0
6.000000 0.100000 0
6.100000 0.100000 0
6.200000 0.100000 0
6.300000 0.100000 0
6.400000 0.100000 0
6.500000 0.100000 0
6.600000 0.100000 0
6.700000 0.100000 0
6.800000 0.100000 0
6.900000 0.100000 0
7.000000 0.100000 0
7.100000 0.100000 0
7.200000 0.100000 0
7.300000 0.100000 0
7.400000 0.100000 0
7.500000 0.100000 0
7.600000 0.100000 0
7.700000 0.100000 0
7.800000 0.100000 0
7.900000 0.100000 0
8.000000 0.100000 0
8.100000 0.100000 0
8.200000 0.100000 0
8.300000 0.100000 0
8.400000 0.100000 0
8.500000 0.100000 0
8.600000 0.100000 0
8.700000 0.100000 0
8.800000 0.100000 0
8.900000 0.100000 0
9.000000 0.100000 0
9.100000 0.100000 0
9.200000 0.100000 0
9.300000 0.100000 0
9.400000 0.100000 0
9.500000 0.100000 0
9.600000 0.100000 0
9.700000 0.100000 0
9.800000 0.100000 0
9.900000 0.100000 0
10.000000 0.100000 0
0.000000 0.200000 0
0.100000 0.200000 0
0.200000 0.200000 0
0.300000 0.200000 0
0.400000 0.200000 0
0.500000 0.200000 0
0.600000 0.200000 0
0.700000 0.200000 0
0.800000 0.200000 0
0.900000 0.200000 0
1.000000 0.200000 0
1.100000 0.200000 0
1.200000 0.200000 0
1.300000 0.200000 0
1.400000 0.200000 0
1.500000 0.200000 0
1.600000 0.200000 0
1.700000 0.200000 0
1.800000 0.200000 0
1.900000 0.200000 0
2.000000 0.200000 0
2.100000 0.200000 0
2.200000 0.200000 0
2.300000 0.200000 0
2.400000 0.200000 0
2.500000 0.200000 0
2.600000 0.200000 0
2.700000 0.200000 0
2.800000 0.200000 0
2.900000 0.200000 0
3.000000 0.200000 0
3.100000 0.200000 0
3.200000 0.200000 0
3.300000 0.200000 0
3.400000 0.200000 0
3.500000 0.200000 0
3.600000 0.200000 0
3.700000 0.200000 0
3.800000 0.200000 0
3.900000 0.200000 0
4.000000 0.200000 0
4.100000 0.200000 0
4.200000 0.200000 0
4.300000 0.200000 0
4.400000 0.200000 0
4.500000 0.200000 0
4.600000 0.200000 0
4.700000 0.200000 0
4.800000 0.200000 0
4.900000 0.200000 0
5.000000 0.200000 0
5.100000 0.200000 0
5.200000 0.200000 0
5.300000 0.200000 0
5.400000 0.200000 0
5.500000 0.200000 0
5.600000 0.200000 0
5.700000 0.200000 0
5.800000 0.200000 0
5.900000 0.200000 0
6.000000 0.200000 0
6.100000 0.200000 0
6.200000 0.200000 0
6.300000 0.200000 0
6.400000 0.200000 0
6.500000 0.200000 0
6.600000 0.200000 0
6.700000 0.200000 0
6.800000 0.200000 0
6.900000 0.200000 0
7.000000 0.200000 0
7.100000 0.200000 0
7.200000 0.200000 0
7.300000 0.200000 0
7.400000 0.200000 0
7.500000 0.200000 0
7.600000 0.200000 0
7.700000 0.200000 0
7.800000 0.200000 0
7.900000 0.200000 0
8.000000 0.200000 0
8.100000 0.200000 0
8.200000 0.200000 0
8.300000 0.200000 0
8.400000 0.200000 0
8.500000 0.200000 0
8.600000 0.200000 0
8.700000 0.200000 0
8.800000 0.200000 0
8.900000 0.200000 0
9.000000 0.200000 0
9.100000 0.200000 0
9.200000 0.200000 0
9.300000 0.200000 0
9.400000 0.200000 0
9.500000 0.200000 0
9.600000 0.200000 0
9.700000 0.200000 0
9.800000 0.200000 0
9.900000 0.200000 0
10.000000 0.200000 0
0.000000 0.300000 0
0.100000 0.300000 0
0.200000 0.300000 0
0.300000 0.300000 0
0.400000 0.300000 0
0.500000 0.300000 0
0.600000 0.300000 0
0.700000 0.300000 0
0.800000 0.300000 0
0.900000 0.300000 0
1.000000 0.300000 0
1.100000 0.300000 0
1.200000 0.300000 0
1.300000 0.300000 0
1.400000 0.300000 0
1.500000 0.300000 0
1.600000 0.300000 0
1.700000 0.300000 0
1.800000 0.300000 0
1.900000 0.300000 0
2.000000 0.300000 0
2.100000 0.300000 0
2.200000 0.300000 0
2.300000 0.300000 0
2.400000 0.300000 0
2.500000 0.300000 0
2.600000 0.300000 0
2.700000 0.300000 0
2.800000 0.300000 0
2.900000 0.300000 0
3.000000 0.300000 0
3.100000 0.300000 0
3.200000 0.300000 0
3.300000 0.300000 0
3.400000 0.300000 0
3.500000 0.300000 0
3.600000 0.300000 0
3.700000 0.300000 0
3.800000 0.300000 0
3.900000 0.300000 0
4.000000 0.300000 0
4.100000 0.300000 0
4.200000 0.300000 0
4.300000 0.300000 0
4.400000 0.300000 0
4.500000 0.300000 0
4.600000 0.300000 0
4.700000 0.300000 0
4.800000 0.300000 0
4.900000 0.300000 0
5.000000 0.300000 0
5.100000 0.300000 0
5.200000 0.300000 0
5.300000 0.300000 0
5.400000 0.300000 0
5.500000 0.300000 0
5.600000 0.300000 0
5.700000 0.300000 0
5.800000 0.300000 0
5.900000 0.300000 0
6.000000 0.300000 0
6.100000 0.300000 0
6.200000 0.300000 0
6.300000 0.300000 0
6.400000 0.300000 0
6.500000 0.300000 0
6.600000 0.300000 0
6.700000 0.300000 0
6.800000 0.300000 0
6.900000 0.300000 0
7.000000 0.300000 0
7.100000 0.300000 0
7.200000 0.300000 0
7.300000 0.300000 0
7.400000 0.300000 0
7.500000 0.300000 0
7.600000 0.300000 0
7.700000 0.300000 0
7.800000 0.300000 0
7.900000 0.300000 0
8.000000 0.300000 0
8.100000 0.300000 0
8.200000 0.300000 0
8.300000 0.300000 0
8.400000 0.300000 0
8.500000 0.300000 0
8.600000 0.300000 0
8.700000 0.300000 0
8.800000 0.300000 0
8.900000 0.300000 0
9.000000 0.300000 0
9.100000 0.300000 0
9.200000 0.300000 0
9.300000 0.300000 0
9.400000 0.300000 0
9.500000 0.300000 0
9.600000 0.300000 0
9.700000 0.300000 0
9.800000 0.300000 0
9.900000 0.300000 0
10.000000 0.300000 0
0.000000 0.400000 0
0.100000 0.400000 0
0.200000 0.400000 0
0.300000 0.400000 0
0.400000 0.400000 0
0.500000 0.400000 0
0.600000 0.400000 0
0.700000 0.400000 0
0.800000 0.400000 0
0.900000 0.400000 0
1.000000 0.400000 0
1.100000 0.400000 0
1.200000 0.400000 0
1.300000 0.400000 0
1.400000 0.400000 0
1.500000 0.400000 0
1.600000 0.400000 0
1.700000 0.400000 0
1.800000 0.400000 0
1.900000 0.400000 0
2.000000 0.400000 0
2.100000 0.400000 0
2.200000 0.400000 0
2.300000 0.400000 0
2.400000 0.400000 0
2.500000 0.400000 0
2.600000 0.400000 0
2.700000 0.400000 0
2.800000 0.400000 0
2.900000 0.400000 0
3.000000 0.400000 0
3.100000 0.400000 0
3.200000 0.400000 0
3.300000 0.400000 0
3.400000 0.400000 0
3.500000 0.400000 0
3.600000 0.400000 0
3.700000 0.400000 0
3.800000 0.400000 0
3.900000 0.400000 0
4.000000 0.400000 0
4.100000 0.400000 0
4.200000 0.400000 0
4.300000 0.400000 0
4.400000 0.400000 0
4.500000 0.400000 0
4.600000 0.400000 0
4.700000 0.400000 0
4.800000 0.400000 0
4.900000 0.400000 0
5.000000 0.400000 0
5.100000 0.400000 0
5.200000 0.400000 0
5.300000 0.400000 0
5.400000 0.400000 0
5.500000 0.400000 0
5.600000 0.400000 0
5.700000 0.400000 0
5.800000 0.400000 0
5.900000 0.400000 0
6.000000 0.400000 0
6.100000 0.400000 0
6.200000 0.400000 0
6.300000 0.400000 0
6.400000 0.400000 0
6.500000 0.400000 0
6.600000 0.400000 0
6.700000 0.400000 0
6.800000 0.400000 0
6.900000 0.400000 0
7.000000 0.400000 0
7.100000 0.400000 0
7.200000 0.400000 0
7.300000 0.400000 0
7.400000 0.400000 0
7.500000 0.400000 0
7.600000 0.400000 0
7.700000 0.400000 0
7.800000 0.400000 0
7.900000 0.400000 0
8.000000 0.400000 0
8.100000 0.400000 0
8.200000 0.400000 0
8.300000 0.400000 0
8.400000 0.400000 0
8.500000 0.400000 0
8.600000 0.400000 0
[...]
POINT_DATA 2121 

VECTORS velocity float
1.000000 0.000000 0
0.000009 0.000000 0
0.000016 0.000000 0
0.000010 0.000000 0
-0.000019 0.000000 0
-0.000085 0.000000 0
-0.000207 0.000000 0
-0.000374 0.000000 0
-0.000570 0.000000 0
-0.000786 0.000000 0
-0.001026 0.000000 0
-0.001297 0.000000 0
-0.001610 0.000000 0
-0.001977 0.000000 0
-0.002401 0.000000 0
-0.002867 0.000000 0
-0.003327 0.000000 0
-0.003696 0.000000 0
-0.003856 0.000000 0
-0.003664 0.000000 0
-0.002979 0.000000 0
-0.001725 0.000000 0
-0.000003 0.000000 0
0.001963 0.000000 0
0.004005 0.000000 0
0.005934 0.000000 0
0.007591 0.000000 0
0.008864 0.000000 0
0.009693 0.000000 0
0.010059 0.000000 0
0.009979 0.000000 0
0.009490 0.000000 0
0.008641 0.000000 0
0.007489 0.000000 0
0.006086 0.000000 0
0.004483 0.000000 0
0.002712 0.000000 0
0.000780 0.000000 0
-0.001314 0.000000 0
-0.003465 0.000000 0
-0.005558 0.000000 0
-0.007526 0.000000 0
-0.009322 0.000000 0
-0.010948 0.000000 0
-0.012385 0.000000 0
-0.013547 0.000000 0
-0.014296 0.000000 0
-0.014480 0.000000 0
-0.013962 0.000000 0
-0.012631 0.000000 0
-0.010408 0.000000 0
-0.007290 0.000000 0
-0.003497 0.000000 0
0.000393 0.000000 0
0.004106 0.000000 0
0.007515 0.000000 0
0.010476 0.000000 0
0.012852 0.000000 0
0.014520 0.000000 0
0.015346 0.000000 0
0.015166 0.000000 0
0.013839 0.000000 0
0.011429 0.000000 0
0.008373 0.000000 0
0.005358 0.000000 0
0.002961 0.000000 0
0.001377 0.000000 0
0.000452 0.000000 0
-0.000139 0.000000 0
-0.000717 0.000000 0
-0.001457 0.000000 0
-0.002394 0.000000 0
-0.003503 0.000000 0
-0.004694 0.000000 0
-0.005852 0.000000 0
-0.006871 0.000000 0
-0.007669 0.000000 0
-0.008192 0.000000 0
-0.008405 0.000000 0
-0.008292 0.000000 0
-0.007846 0.000000 0
-0.007071 0.000000 0
-0.005976 0.000000 0
-0.004588 0.000000 0
-0.002959 0.000000 0
-0.001190 0.000000 0
0.000603 0.000000 0
0.002415 0.000000 0
0.004186 0.000000 0
0.005830 0.000000 0
0.007212 0.000000 0
0.008130 0.000000 0
0.008361 0.000000 0
0.007782 0.000000 0
0.006494 0.000000 0
0.004810 0.000000 0
0.003109 0.000000 0
0.001660 0.000000 0
0.000587 0.000000 0
-0.000052 0.000000 0
0.000000 0.000000 0
1.000000 -0.008969 0
1.018706 -0.027716 0
1.057443 -0.048020 0
1.118094 -0.069434 0
1.202245 -0.090166 0
1.308543 -0.107571 0
1.435540 -0.113210 0
1.554217 -0.102582 0
1.649781 -0.083358 0
1.721254 -0.063492 0
1.773165 -0.046956 0
1.810829 -0.034774 0
1.838840 -0.026749 0
1.861043 -0.022422 0
1.880816 -0.021333 0
1.901147 -0.022922 0
1.924453 -0.026385 0
1.952279 -0.030561 0
1.984916 -0.033876 0
2.020945 -0.034426 0
2.056900 -0.030301 0
2.087246 -0.020307 0
2.105117 -0.004945 0
2.104632 0.013958 0
2.083002 0.034423 0
2.039646 0.054556 0
1.976035 0.072669 0
1.895187 0.087525 0
1.801081 0.098376 0
1.698152 0.104902 0
1.590906 0.107107 0
1.483663 0.105212 0
1.380407 0.099570 0
1.284706 0.090605 0
1.199675 0.078769 0
1.127943 0.064492 0
1.071563 0.048099 0
1.031840 0.029776 0
1.009181 0.009869 0
1.003258 -0.010466 0
1.013570 -0.029791 0
1.039432 -0.047185 0
1.079812 -0.062260 0
1.133722 -0.075142 0
1.200531 -0.086007 0
1.279225 -0.094540 0
1.367616 -0.099911 0
1.462092 -0.101073 0
1.557848 -0.097038 0
1.649282 -0.087026 0
1.730345 -0.070553 0
1.794834 -0.047765 0
1.836783 -0.020302 0
1.851430 0.008486 0
1.837607 0.036076 0
1.796877 0.061474 0
1.732086 0.083699 0
1.647155 0.101784 0
1.546942 0.114779 0
1.437209 0.121567 0
1.324675 0.120744 0
1.216951 0.111061 0
1.121741 0.092758 0
1.044993 0.068814 0
0.988828 0.044351 0
0.950941 0.024114 0
0.926241 0.010241 0
0.909617 0.001973 0
0.898065 -0.003121 0
0.891194 -0.007619 0
0.890498 -0.013137 0
0.898233 -0.020177 0
0.916087 -0.028526 0
0.944710 -0.037494 0
0.983676 -0.046163 0
1.031689 -0.053664 0
1.086840 -0.059328 0
1.146839 -0.062718 0
1.209193 -0.063595 0
1.271338 -0.061870 0
1.330733 -0.057558 0
1.384932 -0.050749 0
1.431639 -0.041604 0
1.468772 -0.030394 0
1.494536 -0.017599 0
1.507544 -0.004002 0
1.507042 0.009668 0
1.493085 0.023023 0
1.466351 0.035680 0
1.428210 0.047018 0
1.380888 0.056099 0
1.327645 0.061621 0
1.272721 0.062264 0
1.220758 0.057483 0
1.175642 0.048285 0
1.139324 0.037218 0
1.111280 0.027468 0
1.088792 0.021809 0
1.067491 0.022087 0
1.041447 0.029438 0
1.000000 0.035052 0
1.000000 -0.018718 0
1.019118 -0.057461 0
1.058899 -0.099401 0
1.122607 -0.144815 0
1.214545 -0.190462 0
1.336263 -0.233308 0
1.498812 -0.245684 0
1.631036 -0.214250 0
1.721970 -0.167044 0
1.782041 -0.123388 0
1.822251 -0.089577 0
1.849977 -0.065675 0
1.869673 -0.050212 0
1.884491 -0.041973 0
1.897295 -0.040100 0
1.910908 -0.043632 0
1.927829 -0.051127 0
1.949986 -0.060459 0
1.978426 -0.068663 0
2.012838 -0.071982 0
2.051035 -0.066300 0
2.088399 -0.048217 0
2.117252 -0.017388 0
2.127652 0.022111 0
2.114472 0.064982 0
2.077071 0.106961 0
2.017453 0.144451 0
1.939242 0.174945 0
1.846945 0.197025 0
1.745373 0.210165 0
1.639243 0.214478 0
1.532957 0.210488 0
1.430492 0.198947 0
1.335362 0.180722 0
1.250607 0.156754 0
1.178714 0.128106 0
1.121322 0.096098 0
1.078530 0.062379 0
1.048254 0.028581 0
1.027025 -0.004388 0
1.012797 -0.036170 0
1.006973 -0.066237 0
1.013035 -0.094284 0
1.034479 -0.120711 0
1.074000 -0.145495 0
1.131625 -0.167076 0
1.204562 -0.182857 0
1.288123 -0.190224 0
1.376703 -0.187182 0
1.464472 -0.172490 0
1.545755 -0.145548 0
1.615175 -0.106435 0
1.667548 -0.056594 0
1.697651 -0.000823 0
1.701603 0.054551 0
1.680168 0.105517 0
1.635836 0.149718 0
1.572381 0.185138 0
1.494546 0.209939 0
1.407827 0.222259 0
1.318184 0.220249 0
1.231466 0.202925 0
1.152432 0.171950 0
1.083721 0.132906 0
1.025365 0.094045 0
0.975347 0.062580 0
0.931207 0.041319 0
0.891870 0.028171 0
0.858390 0.018420 0
0.833176 0.007565 0
0.818667 -0.007041 0
0.816643 -0.025590 0
0.827845 -0.046477 0
0.851744 -0.067590 0
0.886929 -0.086980 0
0.931479 -0.103164 0
0.983185 -0.115150 0
1.039677 -0.122354 0
1.098523 -0.124501 0
1.157299 -0.121543 0
1.213653 -0.113597 0
1.265363 -0.100910 0
1.310378 -0.083846 0
1.346876 -0.062904 0
1.373298 -0.038779 0
1.388373 -0.012513 0
1.391202 0.014450 0
1.381803 0.040681 0
1.361151 0.064864 0
1.331103 0.085451 0
1.294386 0.100553 0
1.254396 0.108154 0
1.214625 0.106874 0
1.177845 0.097066 0
1.145487 0.081419 0
1.117658 0.064347 0
1.093644 0.050518 0
1.072363 0.043775 0
1.052284 0.047330 0
1.030644 0.067476 0
1.000000 0.082026 0
1.000000 -0.028097 0
1.017460 -0.086627 0
1.054781 -0.151515 0
1.117274 -0.225086 0
1.213709 -0.303826 0
1.353079 -0.391841 0
1.576153 -0.407986 0
1.703000 -0.325741 0
1.761516 -0.234363 0
1.788047 -0.163772 0
1.801191 -0.114890 0
1.808331 -0.082194 0
1.811504 -0.061261 0
1.811561 -0.050042 0
1.809914 -0.047747 0
1.808813 -0.053454 0
1.810535 -0.065463 0
1.817320 -0.081158 0
1.831507 -0.096729 0
1.855039 -0.107036 0
1.888605 -0.105864 0
1.930383 -0.086527 0
1.974310 -0.044202 0
2.007479 0.016733 0
2.014847 0.084999 0
1.994992 0.151570 0
1.950183 0.210494 0
1.884591 0.258028 0
1.803172 0.292239 0
1.710982 0.312599 0
1.612809 0.319518 0
1.513005 0.313959 0
1.415416 0.297161 0
1.323385 0.270487 0
1.239765 0.235415 0
1.166873 0.193776 0
1.106074 0.148283 0
1.056438 0.102844 0
1.013106 0.061376 0
0.968925 0.024994 0
0.921099 -0.009736 0
0.876158 -0.047419 0
0.847584 -0.089761 0
0.845823 -0.136103 0
0.872116 -0.183150 0
0.922287 -0.225099 0
0.990333 -0.256405 0
1.069936 -0.273211 0
1.154972 -0.273385 0
1.239769 -0.256078 0
1.319261 -0.221256 0
1.389034 -0.169559 0
1.445273 -0.102779 0
1.484548 -0.025571 0
1.503041 0.053556 0
1.500123 0.127238 0
1.477389 0.191483 0
1.437681 0.243071 0
1.384749 0.279330 0
1.322931 0.297925 0
1.256693 0.297102 0
1.189873 0.276810 0
1.124784 0.240499 0
1.061757 0.195879 0
0.999766 0.152723 0
0.938082 0.118271 0
0.877953 0.093717 0
0.822941 0.074790 0
0.777563 0.055573 0
0.745389 0.032104 0
0.727976 0.003396 0
0.725011 -0.029355 0
0.735508 -0.063626 0
0.758040 -0.096578 0
0.790921 -0.125898 0
0.832277 -0.149920 0
0.880070 -0.167527 0
0.932136 -0.178057 0
0.986245 -0.181217 0
1.040184 -0.177001 0
1.091817 -0.165623 0
1.139146 -0.147476 0
1.180345 -0.123119 0
1.213810 -0.093316 0
1.238226 -0.059099 0
1.252670 -0.021908 0
1.256734 0.016236 0
1.250762 0.053071 0
1.235939 0.086377 0
1.214184 0.113781 0
1.187961 0.132803 0
1.159861 0.141379 0
1.131961 0.138812 0
1.105353 0.126618 0
1.080278 0.108469 0
1.056838 0.089058 0
1.035665 0.072759 0
1.018012 0.063166 0
1.005327 0.063802 0
0.998823 0.081718 0
1.000000 0.094174 0
1.000000 -0.036188 0
1.013167 -0.112255 0
1.042049 -0.199220 0
1.093226 -0.303748 0
1.180094 -0.426272 0
1.325715 -0.595755 0
1.625648 -0.595608 0
1.682007 -0.399615 0
1.659095 -0.252090 0
1.626680 -0.163061 0
1.600312 -0.109859 0
1.580982 -0.075986 0
1.564297 -0.053440 0
1.546813 -0.040380 0
1.527072 -0.037350 0
1.506263 -0.044251 0
1.485800 -0.059633 0
1.468628 -0.081432 0
1.461036 -0.106383 0
1.470145 -0.129081 0
1.500035 -0.141646 0
1.549495 -0.133926 0
1.612297 -0.094488 0
1.677331 -0.018430 0
1.723915 0.077465 0
1.740790 0.171620 0
1.729826 0.254846 0
1.695084 0.321950 0
1.641378 0.370629 0
1.573541 0.400523 0
1.496120 0.412451 0
1.413235 0.407877 0
1.328515 0.388563 0
1.245063 0.356371 0
1.165263 0.313265 0
1.089918 0.261797 0
1.016521 0.206534 0
0.939182 0.155348 0
0.854320 0.116097 0
0.767873 0.087623 0
0.693435 0.056600 0
0.643223 0.007282 0
0.623313 -0.063945 0
0.633677 -0.145240 0
0.669260 -0.221954 0
0.723995 -0.285290 0
0.792399 -0.330503 0
0.869470 -0.354861 0
0.950366 -0.357015 0
1.030454 -0.336779 0
1.105603 -0.294812 0
1.172392 -0.232448 0
1.228126 -0.152110 0
1.270708 -0.058594 0
1.297942 0.038974 0
1.308382 0.131166 0
1.302985 0.212157 0
1.283588 0.277775 0
1.252691 0.324685 0
1.213183 0.350311 0
1.167817 0.353304 0
1.118451 0.334832 0
1.065381 0.300063 0
1.007578 0.257922 0
0.944288 0.217718 0
0.877137 0.184392 0
0.810855 0.156459 0
0.751694 0.128561 0
0.704807 0.095972 0
0.672729 0.057152 0
0.655626 0.013337 0
0.652292 -0.033121 0
0.661199 -0.079506 0
0.680934 -0.123002 0
0.710033 -0.161216 0
0.746860 -0.192313 0
0.789583 -0.215009 0
0.836207 -0.228529 0
0.884656 -0.232549 0
0.932872 -0.227115 0
0.978907 -0.212560 0
1.020983 -0.189439 0
1.057529 -0.158510 0
1.087217 -0.120785 0
1.109018 -0.077641 0
1.122328 -0.031024 0
1.127123 0.016357 0
1.124085 0.061474 0
1.114540 0.101439 0
1.100245 0.133427 0
1.083091 0.154875 0
1.064660 0.164153 0
1.045830 0.161380 0
1.026822 0.148747 0
1.007790 0.129932 0
0.989571 0.108959 0
0.973990 0.089342 0
0.963649 0.074111 0
0.961619 0.066518 0
0.971537 0.072801 0
1.000000 0.077124 0
1.000000 -0.041273 0
1.005123 -0.128688 0
1.016779 -0.231579 0
1.039806 -0.363135 0
1.086837 -0.536320 0
1.191152 -0.837399 0
1.505433 -0.764279 0
1.381788 -0.359189 0
1.227704 -0.179036 0
1.129698 -0.104987 0
1.066710 -0.069189 0
1.028447 -0.046177 0
0.996079 -0.027089 0
0.956870 -0.012815 0
0.912437 -0.007196 0
0.878898 -0.012181 0
0.859692 -0.027828 0
0.858931 -0.056395 0
0.878602 -0.098247 0
0.919650 -0.146037 0
0.981064 -0.185216 0
1.058417 -0.198793 0
1.144340 -0.172043 0
1.231780 -0.094889 0
1.311734 0.021535 0
1.365682 0.145655 0
1.393432 0.256195 0
1.397590 0.346470 0
1.381213 0.413776 0
1.347623 0.457852 0
1.300202 0.479820 0
1.242198 0.481561 0
1.176510 0.465330 0
1.105268 0.433737 0
1.028773 0.390559 0
0.943847 0.342518 0
0.844484 0.299020 0
0.729072 0.265046 0
0.609736 0.232688 0
0.509792 0.185882 0
0.447967 0.114918 0
0.427575 0.022707 0
0.438995 -0.080211 0
0.470273 -0.182046 0
0.515096 -0.273465 0
0.570512 -0.348234 0
0.634415 -0.401877 0
0.704401 -0.431176 0
0.777353 -0.434369 0
0.849655 -0.411315 0
0.917841 -0.363195 0
0.979195 -0.292082 0
1.031904 -0.201097 0
1.074850 -0.095390 0
1.107038 0.015880 0
1.126836 0.122192 0
1.134707 0.216274 0
1.131608 0.293362 0
1.118897 0.349731 0
1.098075 0.382796 0
1.070267 0.391830 0
1.035576 0.379243 0
0.992885 0.351370 0
0.940873 0.316969 0
0.880103 0.283162 0
0.814506 0.251703 0
0.750596 0.219160 0
0.694786 0.180838 0
0.651111 0.134537 0
0.620913 0.081285 0
0.603860 0.023834 0
0.598943 -0.034928 0
0.604975 -0.092268 0
0.620849 -0.145410 0
0.645329 -0.191823 0
0.676964 -0.229470 0
0.714075 -0.256873 0
0.754801 -0.273130 0
0.797192 -0.277883 0
0.839313 -0.271252 0
0.879364 -0.253733 0
0.915771 -0.226097 0
0.947242 -0.189354 0
0.972800 -0.144806 0
0.991829 -0.094211 0
1.004146 -0.040013 0
1.010040 0.014479 0
1.010264 0.065653 0
1.005986 0.110217 0
0.998540 0.145228 0
0.989103 0.168387 0
0.978374 0.178639 0
0.966516 0.176650 0
0.953549 0.164658 0
0.940003 0.145719 0
0.927392 0.122858 0
0.918224 0.098680 0
0.915743 0.075537 0
0.923957 0.055914 0
0.948309 0.043337 0
1.000000 0.034672 0
1.000000 -0.041321 0
0.993972 -0.129046 0
0.980869 -0.233908 0
0.959341 -0.373809 0
0.928471 -0.577621 0
0.894419 -1.014354 0
0.687979 -0.664360 0
0.000291 0.000000 0
0.000638 0.000000 0
0.000986 0.000000 0
0.347755 -0.006539 0
0.319910 -0.005352 0
0.293649 0.018139 0
0.283488 0.043263 0
0.266196 0.040624 0
0.288890 0.008494 0
0.316676 -0.039666 0
0.357314 -0.100342 0
0.412686 -0.167104 0
0.481393 -0.231546 0
0.561313 -0.280417 0
0.649411 -0.297206 0
0.740481 -0.267855 0
0.828457 -0.185829 0
0.911210 -0.056443 0
0.980312 0.089916 0
1.031526 0.222933 0
1.065507 0.334164 0
1.081653 0.420591 0
1.080217 0.481530 0
1.062269 0.517872 0
1.029227 0.531566 0
0.982192 0.525490 0
0.920909 0.504105 0
0.842673 0.474685 0
0.743704 0.446086 0
0.626105 0.421310 0
0.505398 0.390098 0
0.405374 0.335380 0
0.341881 0.249395 0
0.315566 0.138820 0
0.318259 0.016257 0
0.340601 -0.106640 0
0.374997 -0.221337 0
0.417532 -0.322190 0
0.466334 -0.404606 0
0.520479 -0.464390 0
0.579128 -0.497798 0
0.640728 -0.502268 0
0.702706 -0.477267 0
0.762062 -0.424354 0
0.816396 -0.346512 0
0.864456 -0.247766 0
0.905912 -0.133729 0
0.940618 -0.013016 0
0.967029 0.103494 0
0.984941 0.207382 0
0.994579 0.293581 0
0.996352 0.358214 0
0.990553 0.398938 0
0.976886 0.415800 0
0.954107 0.412212 0
0.920443 0.394764 0
0.875166 0.370702 0
0.820416 0.344083 0
0.761494 0.313897 0
0.704926 0.276179 0
0.655868 0.228046 0
0.616977 0.169845 0
0.589022 0.104403 0
0.571901 0.035307 0
0.565148 -0.034236 0
0.568032 -0.101411 0
0.579766 -0.163355 0
0.599358 -0.217331 0
0.625550 -0.261057 0
0.656835 -0.292845 0
0.691513 -0.311646 0
0.727778 -0.317060 0
0.763828 -0.309287 0
0.797995 -0.289018 0
0.828878 -0.257316 0
0.855446 -0.215539 0
0.877083 -0.165372 0
0.893599 -0.108986 0
0.905205 -0.049234 0
0.912418 0.010240 0
0.915857 0.065529 0
0.916340 0.113164 0
0.914657 0.150311 0
0.911315 0.175042 0
0.906421 0.186741 0
0.899874 0.186206 0
0.891849 0.175261 0
0.883295 0.156089 0
0.876125 0.130738 0
0.873117 0.100992 0
0.877802 0.068379 0
0.894965 0.033953 0
0.931451 -0.003241 0
1.000000 -0.028611 0
1.000000 -0.035255 0
0.982823 -0.109569 0
0.944970 -0.196952 0
0.878243 -0.310740 0
0.765996 -0.471401 0
0.575485 -0.718796 0
0.000000 0.000698 0
-0.065344 0.436196 0
0.049963 0.000000 0
0.114387 0.002688 0
0.000000 0.000190 0
-0.008605 0.005865 0
-0.008690 0.009335 0
-0.012580 0.014639 0
0.007995 -0.012598 0
0.064607 -0.062661 0
0.100634 -0.096252 0
0.129633 -0.152406 0
0.160372 -0.222329 0
0.199462 -0.294667 0
0.250444 -0.353238 0
0.314245 -0.377965 0
0.388927 -0.351094 0
0.469432 -0.265623 0
0.549291 -0.130325 0
0.626629 0.025332 0
0.692493 0.170994 0
0.747293 0.296337 0
0.787498 0.399061 0
0.810792 0.477232 0
0.815991 0.530806 0
0.802285 0.561635 0
0.768389 0.573646 0
0.712007 0.573255 0
0.631305 0.567764 0
0.530310 0.559087 0
0.424433 0.537328 0
0.335873 0.485778 0
0.279215 0.396207 0
0.254597 0.275694 0
0.254579 0.138544 0
0.271833 -0.002325 0
0.300020 -0.136947 0
0.334625 -0.258974 0
0.372837 -0.364799 0
0.413139 -0.451178 0
0.455215 -0.514668 0
0.499588 -0.551423 0
0.546668 -0.557946 0
0.595656 -0.532649 0
0.644398 -0.476885 0
0.690554 -0.394478 0
0.732858 -0.290615 0
0.771270 -0.171555 0
0.806123 -0.045240 0
0.836517 0.077867 0
0.861396 0.188720 0
0.880383 0.281947 0
0.893071 0.353754 0
0.898703 0.402259 0
0.895854 0.428274 0
0.882501 0.435683 0
0.856983 0.430308 0
0.819623 0.416995 0
0.773739 0.396834 0
0.724785 0.367192 0
0.678101 0.324785 0
0.637181 0.268786 0
0.603658 0.201384 0
0.578214 0.126363 0
0.561216 0.047708 0
0.552779 -0.031058 0
0.552587 -0.106885 0
0.560163 -0.176736 0
0.574776 -0.237606 0
0.595406 -0.286946 0
0.620757 -0.322835 0
0.649329 -0.344072 0
0.679509 -0.350197 0
0.709671 -0.341467 0
0.738306 -0.318782 0
0.764165 -0.283547 0
0.786410 -0.237558 0
0.804696 -0.182958 0
0.819142 -0.122332 0
0.830221 -0.058831 0
0.838535 0.003829 0
0.844538 0.061733 0
0.848681 0.111419 0
0.851267 0.150255 0
0.852330 0.176624 0
0.851695 0.190083 0
0.849277 0.191224 0
0.845494 0.181239 0
0.841547 0.161445 0
0.839474 0.133038 0
0.842080 0.097006 0
0.853069 0.053691 0
0.877932 0.002268 0
0.923351 -0.061696 0
1.000000 -0.104338 0
1.000000 -0.024152 0
0.975495 -0.074028 0
0.921945 -0.129332 0
0.828340 -0.194839 0
0.673647 -0.274866 0
0.418104 -0.370247 0
0.000000 0.000685 0
1.000000 0.211448 0
1.000000 0.000000 0
1.000000 0.000000 0
0.000000 0.000000 0
0.000190 0.000000 0
0.004592 0.020842 0
-0.023218 0.026579 0
-0.012995 -0.036563 0
-0.015785 -0.084145 0
-0.031424 -0.104694 0
-0.047968 -0.160082 0
-0.056825 -0.236936 0
-0.051494 -0.321622 0
-0.030073 -0.395205 0
0.007409 -0.435694 0
0.061977 -0.423048 0
0.135229 -0.346198 0
0.222290 -0.213645 0
0.312200 -0.053292 0
0.394201 0.102263 0
0.464700 0.239153 0
0.521299 0.357086 0
0.561069 0.453032 0
0.581482 0.526375 0
0.580030 0.579165 0
0.554307 0.615766 0
0.503506 0.641188 0
0.432004 0.656382 0
0.353077 0.652959 0
0.285881 0.615748 0
0.244111 0.535318 0
0.228773 0.416659 0
0.233325 0.274034 0
0.251405 0.121587 0
0.278682 -0.029180 0
0.310792 -0.169428 0
0.345011 -0.294150 0
0.379045 -0.400701 0
0.411267 -0.486982 0
0.441236 -0.550838 0
0.470071 -0.589250 0
0.500005 -0.598335 0
0.532824 -0.574997 0
0.568360 -0.519253 0
0.604755 -0.434974 0
0.640241 -0.328484 0
0.674317 -0.206997 0
0.707299 -0.078266 0
0.738990 0.048217 0
0.767803 0.163513 0
0.792854 0.261903 0
0.813012 0.339891 0
0.826673 0.396152 0
0.831703 0.431999 0
0.825939 0.451081 0
0.808364 0.457640 0
0.780295 0.453945 0
0.745429 0.438920 0
0.708359 0.409535 0
0.672723 0.363783 0
0.640538 0.302489 0
0.612806 0.228813 0
0.590312 0.146846 0
0.573860 0.060743 0
0.564056 -0.025606 0
0.560971 -0.108793 0
0.564408 -0.185543 0
0.573937 -0.252572 0
0.588837 -0.307036 0
0.608086 -0.346766 0
0.630420 -0.370396 0
0.654447 -0.377401 0
0.678774 -0.368082 0
0.702103 -0.343509 0
0.723355 -0.305419 0
0.741818 -0.256068 0
0.757266 -0.198101 0
0.769947 -0.134510 0
0.780419 -0.068625 0
0.789277 -0.004074 0
0.796872 0.055385 0
0.803383 0.106437 0
0.808792 0.146664 0
0.812895 0.174617 0
0.815459 0.189797 0
0.816518 0.192410 0
0.816642 0.182994 0
0.817090 0.162112 0
0.819824 0.130209 0
0.827548 0.087401 0
0.844065 0.032531 0
0.874683 -0.036326 0
0.924303 -0.125305 0
1.000000 -0.183356 0
1.000000 -0.010758 0
0.973946 -0.031525 0
0.917977 -0.049801 0
0.822906 -0.062445 0
0.670892 -0.061167 0
0.430827 -0.045151 0
0.000000 0.000706 0
0.318966 0.018101 0
0.500000 0.000000 0
1.000000 0.000000 0
0.500000 0.000000 0
0.502688 -0.028790 0
0.000000 0.001268 0
0.022118 0.033502 0
0.021304 -0.020031 0
-0.066108 -0.044234 0
-0.134832 -0.064070 0
-0.190270 -0.127008 0
-0.227938 -0.218807 0
-0.243940 -0.321423 0
-0.240614 -0.412146 0
-0.221247 -0.470020 0
-0.185769 -0.478919 0
-0.130551 -0.425943 0
-0.051698 -0.307303 0
0.046007 -0.146585 0
0.147734 0.018489 0
0.227250 0.169234 0
0.292813 0.302688 0
0.342017 0.417044 0
0.371852 0.511841 0
0.379531 0.588807 0
0.364206 0.650168 0
0.329647 0.695557 0
0.286005 0.718193 0
0.248250 0.705211 0
0.228425 0.646296 0
0.228665 0.542889 0
0.243731 0.406995 0
0.268025 0.253065 0
0.298239 0.093191 0
0.332053 -0.061709 0
0.366497 -0.203272 0
0.399906 -0.327224 0
0.430392 -0.431052 0
0.456127 -0.513367 0
0.475998 -0.573471 0
0.490566 -0.610192 0
0.502671 -0.620699 0
0.516525 -0.601004 0
0.535219 -0.548817 0
0.558906 -0.466360 0
0.585736 -0.360179 0
0.614130 -0.238615 0
0.643656 -0.109916 0
0.674206 0.017360 0
0.704193 0.134853 0
0.732287 0.236735 0
0.756808 0.319931 0
0.775626 0.383565 0
0.786402 0.429005 0
0.787337 0.459021 0
0.778192 0.475950 0