# vtk DataFile Version 2.0
generated by CFD-lab course output (written by Tobias Neckel) 
ASCII

DATASET STRUCTURED_GRID
DIMENSIONS  51 51 1 
POINTS 2601 float

0.000000 0.000000 0
0.020000 0.000000 0
0.040000 0.000000 0
0.060000 0.000000 0
0.080000 0.000000 0
0.100000 0.000000 0
0.120000 0.000000 0
0.140000 0.000000 0
0.160000 0.000000 0
0.180000 0.000000 0
0.200000 0.000000 0
0.220000 0.000000 0
0.240000 0.000000 0
0.260000 0.000000 0
0.280000 0.000000 0
0.300000 0.000000 0
0.320000 0.000000 0
0.340000 0.000000 0
0.360000 0.000000 0
0.380000 0.000000 0
0.400000 0.000000 0
0.420000 0.000000 0
0.440000 0.000000 0
0.460000 0.000000 0
0.480000 0.000000 0
0.500000 0.000000 0
0.520000 0.000000 0
0.540000 0.000000 0
0.560000 0.000000 0
0.580000 0.000000 0
0.600000 0.000000 0
0.620000 0.000000 0
0.640000 0.000000 0
0.660000 0.000000 0
0.680000 0.000000 0
0.700000 0.000000 0
0.720000 0.000000 0
0.740000 0.000000 0
0.760000 0.000000 0
0.780000 0.000000 0
0.800000 0.000000 0
0.820000 0.000000 0
0.840000 0.000000 0
0.860000 0.000000 0
0.880000 0.000000 0
0.900000 0.000000 0
0.920000 0.000000 0
0.940000 0.000000 0
0.960000 0.000000 0
0.980000 0.000000 0
1.000000 0.000000 0
0.000000 0.020000 0
0.020000 0.020000 0
0.040000 0.020000 0
0.060000 0.020000 0
0.080000 0.020000 0
0.100000 0.020000 0
0.120000 0.020000 0
0.140000 0.020000 0
0.160000 0.020000 0
0.180000 0.020000 0
0.200000 0.020000 0
0.220000 0.020000 0
0.240000 0.020000 0
0.260000 0.020000 0
0.280000 0.020000 0
0.300000 0.020000 0
0.320000 0.020000 0
0.340000 0.020000 0
0.360000 0.020000 0
0.380000 0.020000 0
0.400000 0.020000 0
0.420000 0.020000 0
0.440000 0.020000 0
0.460000 0.020000 0
0.480000 0.020000 0
0.500000 0.020000 0
0.520000 0.020000 0
0.540000 0.020000 0
0.560000 0.020000 0
0.580000 0.020000 0
0.600000 0.020000 0
0.620000 0.020000 0
0.640000 0.020000 0
0.660000 0.020000 0
0.680000 0.020000 0
0.700000 0.020000 0
0.720000 0.020000 0
0.740000 0.020000 0
0.760000 0.020000 0
0.780000 0.020000 0
0.800000 0.020000 0
0.820000 0.020000 0
0.840000 0.020000 0
0.860000 0.020000 0
0.880000 0.020000 0
0.900000 0.020000 0
0.920000 0.020000 0
0.940000 0.020000 0
0.960000 0.020000 0
0.980000 0.020000 0
1.000000 0.020000 0
0.000000 0.040000 0
0.020000 0.040000 0
0.040000 0.040000 0
0.060000 0.040000 0
0.080000 0.040000 0
0.100000 0.040000 0
0.120000 0.040000 0
0.140000 0.040000 0
0.160000 0.040000 0
0.180000 0.040000 0
0.200000 0.040000 0
0.220000 0.040000 0
0.240000 0.040000 0
0.260000 0.040000 0
0.280000 0.040000 0
0.300000 0.040000 0
0.320000 0.040000 0
0.340000 0.040000 0
0.360000 0.040000 0
0.380000 0.040000 0
0.400000 0.040000 0
0.420000 0.040000 0
0.440000 0.040000 0
0.460000 0.040000 0
0.480000 0.040000 0
0.500000 0.040000 0
0.520000 0.040000 0
0.540000 0.040000 0
0.560000 0.040000 0
0.580000 0.040000 0
0.600000 0.040000 0
0.620000 0.040000 0
0.640000 0.040000 0
0.660000 0.040000 0
0.680000 0.040000 0
0.700000 0.040000 0
0.720000 0.040000 0
0.740000 0.040000 0
0.760000 0.040000 0
0.780000 0.040000 0
0.800000 0.040000 0
0.820000 0.040000 0
0.840000 0.040000 0
0.860000 0.040000 0
0.880000 0.040000 0
0.900000 0.040000 0
0.920000 0.040000 0
0.940000 0.040000 0
0.960000 0.040000 0
0.980000 0.040000 0
1.000000 0.040000 0
0.000000 0.060000 0
0.020000 0.060000 0
0.040000 0.060000 0
0.060000 0.060000 0
0.080000 0.060000 0
0.100000 0.060000 0
0.120000 0.060000 0
0.140000 0.060000 0
0.160000 0.060000 0
0.180000 0.060000 0
0.200000 0.060000 0
0.220000 0.060000 0
0.240000 0.060000 0
0.260000 0.060000 0
0.280000 0.060000 0
0.300000 0.060000 0
0.320000 0.060000 0
0.340000 0.060000 0
0.360000 0.060000 0
0.380000 0.060000 0
0.400000 0.060000 0
0.420000 0.060000 0
0.440000 0.060000 0
0.460000 0.060000 0
0.480000 0.060000 0
0.500000 0.060000 0
0.520000 0.060000 0
0.540000 0.060000 0
0.560000 0.060000 0
0.580000 0.060000 0
0.600000 0.060000 0
0.620000 0.060000 0
0.640000 0.060000 0
0.660000 0.060000 0
0.680000 0.060000 0
0.700000 0.060000 0
0.720000 0.060000 0
0.740000 0.060000 0
0.760000 0.060000 0
0.780000 0.060000 0
0.800000 0.060000 0
0.820000 0.060000 0
0.840000 0.060000 0
0.860000 0.060000 0
0.880000 0.060000 0
0.900000 0.060000 0
0.920000 0.060000 0
0.940000 0.060000 0
0.960000 0.060000 0
0.980000 0.060000 0
1.000000 0.060000 0
0.000000 0.080000 0
0.020000 0.080000 0
0.040000 0.080000 0
0.060000 0.080000 0
0.080000 0.080000 0
0.100000 0.080000 0
0.120000 0.080000 0
0.140000 0.080000 0
0.160000 0.080000 0
0.180000 0.080000 0
0.200000 0.080000 0
0.220000 0.080000 0
0.240000 0.080000 0
0.260000 0.080000 0
0.280000 0.080000 0
0.300000 0.080000 0
0.320000 0.080000 0
0.340000 0.080000 0
0.360000 0.080000 0
0.380000 0.080000 0
0.400000 0.080000 0
0.420000 0.080000 0
0.440000 0.080000 0
0.460000 0.080000 0
0.480000 0.080000 0
0.500000 0.080000 0
0.520000 0.080000 0
0.540000 0.080000 0
0.560000 0.080000 0
0.580000 0.080000 0
0.600000 0.080000 0
0.620000 0.080000 0
0.640000 0.080000 0
0.660000 0.080000 0
0.680000 0.080000 0
0.700000 0.080000 0
0.720000 0.080000 0
0.740000 0.080000 0
0.760000 0.080000 0
0.780000 0.080000 0
0.800000 0.080000 0
0.820000 0.080000 0
0.840000 0.080000 0
0.860000 0.080000 0
0.880000 0.080000 0
0.900000 0.080000 0
0.920000 0.080000 0
0.940000 0.080000 0
0.960000 0.080000 0
0.980000 0.080000 0
1.000000 0.080000 0
0.000000 0.100000 0
0.020000 0.100000 0
0.040000 0.100000 0
0.060000 0.100000 0
0.080000 0.100000 0
0.100000 0.100000 0
0.120000 0.100000 0
0.140000 0.100000 0
0.160000 0.100000 0
0.180000 0.100000 0
0.200000 0.100000 0
0.220000 0.100000 0
0.240000 0.100000 0
0.260000 0.100000 0
0.280000 0.100000 0
0.300000 0.100000 0
0.320000 0.100000 0
0.340000 0.100000 0
0.360000 0.100000 0
0.380000 0.100000 0
0.400000 0.100000 0
0.420000 0.100000 0
0.440000 0.100000 0
0.460000 0.100000 0
0.480000 0.100000 0
0.500000 0.100000 0
0.520000 0.100000 0
0.540000 0.100000 0
0.560000 0.100000 0
0.580000 0.100000 0
0.600000 0.100000 0
0.620000 0.100000 0
0.640000 0.100000 0
0.660000 0.100000 0
0.680000 0.100000 0
0.700000 0.100000 0
0.720000 0.100000 0
0.740000 0.100000 0
0.760000 0.100000 0
0.780000 0.100000 0
0.800000 0.100000 0
0.820000 0.100000 0
0.840000 0.100000 0
0.860000 0.100000 0
0.880000 0.100000 0
0.900000 0.100000 0
0.920000 0.100000 0
0.940000 0.100000 0
0.960000 0.100000 0
0.980000 0.100000 0
1.000000 0.100000 0
0.000000 0.120000 0
0.020000 0.120000 0
0.040000 0.120000 0
0.060000 0.120000 0
0.080000 0.120000 0
0.100000 0.120000 0
0.120000 0.120000 0
0.140000 0.120000 0
0.160000 0.120000 0
0.180000 0.120000 0
0.200000 0.120000 0
0.220000 0.120000 0
0.240000 0.120000 0
0.260000 0.120000 0
0.280000 0.120000 0
0.300000 0.120000 0
0.320000 0.120000 0
0.340000 0.120000 0
0.360000 0.120000 0
0.380000 0.120000 0
0.400000 0.120000 0
0.420000 0.120000 0
0.440000 0.120000 0
0.460000 0.120000 0
0.480000 0.120000 0
0.500000 0.120000 0
0.520000 0.120000 0
0.540000 0.120000 0
0.560000 0.120000 0
0.580000 0.120000 0
0.600000 0.120000 0
0.620000 0.120000 0
0.640000 0.120000 0
0.660000 0.120000 0
0.680000 0.120000 0
0.700000 0.120000 0
0.720000 0.120000 0
0.740000 0.120000 0
0.760000 0.120000 0
0.780000 0.120000 0
0.800000 0.120000 0
0.820000 0.120000 0
0.840000 0.120000 0
0.860000 0.120000 0
0.880000 0.120000 0
0.900000 0.120000 0
0.920000 0.120000 0
0.940000 0.120000 0
0.960000 0.120000 0
0.980000 0.120000 0
1.000000 0.120000 0
0.000000 0.140000 0
0.020000 0.140000 0
0.040000 0.140000 0
0.060000 0.140000 0
0.080000 0.140000 0
0.100000 0.140000 0
0.120000 0.140000 0
0.140000 0.140000 0
0.160000 0.140000 0
0.180000 0.140000 0
0.200000 0.140000 0
0.220000 0.140000 0
0.240000 0.140000 0
0.260000 0.140000 0
0.280000 0.140000 0
0.300000 0.140000 0
0.320000 0.140000 0
0.340000 0.140000 0
0.360000 0.140000 0
0.380000 0.140000 0
0.400000 0.140000 0
0.420000 0.140000 0
0.440000 0.140000 0
0.460000 0.140000 0
0.480000 0.140000 0
0.500000 0.140000 0
0.520000 0.140000 0
0.540000 0.140000 0
0.560000 0.140000 0
0.580000 0.140000 0
0.600000 0.140000 0
0.620000 0.140000 0
0.640000 0.140000 0
0.660000 0.140000 0
0.680000 0.140000 0
0.700000 0.140000 0
0.720000 0.140000 0
0.740000 0.140000 0
0.760000 0.140000 0
0.780000 0.140000 0
0.800000 0.140000 0
0.820000 0.140000 0
0.840000 0.140000 0
0.860000 0.140000 0
0.880000 0.140000 0
0.900000 0.140000 0
0.920000 0.140000 0
0.940000 0.140000 0
0.960000 0.140000 0
0.980000 0.140000 0
1.000000 0.140000 0
0.000000 0.160000 0
0.020000 0.160000 0
0.040000 0.160000 0
0.060000 0.160000 0
0.080000 0.160000 0
0.100000 0.160000 0
0.120000 0.160000 0
0.140000 0.160000 0
0.160000 0.160000 0
0.180000 0.160000 0
0.200000 0.160000 0
0.220000 0.160000 0
0.240000 0.160000 0
0.260000 0.160000 0
0.280000 0.160000 0
0.300000 0.160000 0
0.320000 0.160000 0
0.340000 0.160000 0
0.360000 0.160000 0
0.380000 0.160000 0
0.400000 0.160000 0
0.420000 0.160000 0
0.440000 0.160000 0
0.460000 0.160000 0
0.480000 0.160000 0
0.500000 0.160000 0
0.520000 0.160000 0
0.540000 0.160000 0
0.560000 0.160000 0
0.580000 0.160000 0
0.600000 0.160000 0
0.620000 0.160000 0
0.640000 0.160000 0
0.660000 0.160000 0
0.680000 0.160000 0
0.700000 0.160000 0
0.720000 0.160000 0
0.740000 0.160000 0
0.760000 0.160000 0
0.780000 0.160000 0
0.800000 0.160000 0
0.820000 0.160000 0
0.840000 0.160000 0
0.860000 0.160000 0
0.880000 0.160000 0
0.900000 0.160000 0
0.920000 0.160000 0
0.940000 0.160000 0
0.960000 0.160000 0
0.980000 0.160000 0
1.000000 0.160000 0
0.000000 0.180000 0
0.020000 0.180000 0
0.040000 0.180000 0
0.060000 0.180000 0
0.080000 0.180000 0
0.100000 0.180000 0
0.120000 0.180000 0
0.140000 0.180000 0
0.160000 0.180000 0
0.180000 0.180000 0
0.200000 0.180000 0
0.220000 0.180000 0
0.240000 0.180000 0
0.260000 0.180000 0
0.280000 0.180000 0
0.300000 0.180000 0
0.320000 0.180000 0
0.340000 0.180000 0
0.360000 0.180000 0
0.380000 0.180000 0
0.400000 0.180000 0
0.420000 0.180000 0
0.440000 0.180000 0
0.460000 0.180000 0
0.480000 0.180000 0
0.500000 0.180000 0
0.520000 0.180000 0
0.540000 0.180000 0
0.560000 0.180000 0
0.580000 0.180000 0
0.600000 0.180000 0
0.620000 0.180000 0
[...]
POINT_DATA 2601 

VECTORS velocity float
0.000000 -0.151484 0
0.000098 -0.373280 0
0.000205 -0.448538 0
0.000305 -0.438419 0
0.000396 -0.401394 0
0.000479 -0.354890 0
0.000551 -0.305217 0
0.000612 -0.255683 0
0.000660 -0.208573 0
0.000695 -0.165616 0
0.000716 -0.128042 0
0.000728 -0.096489 0
0.000731 -0.070954 0
0.000730 -0.050832 0
0.000726 -0.035092 0
0.000721 -0.022552 0
0.000715 -0.012264 0
0.000708 -0.003705 0
0.000700 0.003434 0
0.000691 0.009531 0
0.000680 0.015119 0
0.000669 0.020870 0
0.000657 0.027642 0
0.000644 0.036509 0
0.000631 0.048752 0
0.000618 0.065803 0
0.000606 0.089148 0
0.000593 0.120201 0
0.000579 0.160145 0
0.000563 0.209712 0
0.000544 0.268848 0
0.000520 0.336211 0
0.000486 0.408418 0
0.000441 0.479141 0
0.000379 0.538461 0
0.000299 0.573644 0
0.000201 0.572630 0
0.000091 0.529646 0
-0.000021 0.449110 0
-0.000118 0.343948 0
-0.000196 0.229593 0
-0.000251 0.118764 0
-0.000282 0.019898 0
-0.000279 -0.069373 0
-0.000252 -0.157320 0
-0.000212 -0.244231 0
-0.000166 -0.324947 0
-0.000118 -0.392615 0
-0.000070 -0.430001 0
-0.000030 -0.376279 0
0.000000 -0.157358 0
0.000000 -0.000049 0
0.001220 -0.373383 0
0.001436 -0.448642 0
0.001409 -0.438514 0
0.001356 -0.401480 0
0.001313 -0.354967 0
0.001276 -0.305284 0
0.001236 -0.255738 0
0.001186 -0.208614 0
0.001118 -0.165644 0
0.001030 -0.128058 0
0.000924 -0.096497 0
0.000808 -0.070955 0
0.000697 -0.050829 0
0.000607 -0.035087 0
0.000557 -0.022546 0
0.000556 -0.012258 0
0.000591 -0.003697 0
0.000634 0.003443 0
0.000657 0.009541 0
0.000662 0.015130 0
0.000658 0.020882 0
0.000649 0.027655 0
0.000638 0.036522 0
0.000626 0.048765 0
0.000614 0.065816 0
0.000601 0.089161 0
0.000589 0.120214 0
0.000575 0.160160 0
0.000559 0.209729 0
0.000539 0.268870 0
0.000513 0.336240 0
0.000478 0.408458 0
0.000430 0.479195 0
0.000368 0.538532 0
0.000288 0.573733 0
0.000193 0.572734 0
0.000085 0.529757 0
-0.000027 0.449214 0
-0.000133 0.344035 0
-0.000236 0.229659 0
-0.000350 0.118806 0
-0.000551 0.019912 0
-0.000952 -0.069388 0
-0.001157 -0.157354 0
-0.001261 -0.244275 0
-0.001344 -0.324994 0
-0.001434 -0.392663 0
-0.001494 -0.430045 0
-0.001299 -0.376314 0
0.000000 -0.000015 0
0.000000 -0.000049 0
0.002604 -0.374716 0
0.003173 -0.448728 0
0.003057 -0.438339 0
0.002824 -0.401297 0
0.002600 -0.354810 0
0.002395 -0.305140 0
0.002194 -0.255593 0
0.001986 -0.208455 0
0.001758 -0.165461 0
0.001503 -0.127848 0
0.001226 -0.096267 0
0.000938 -0.070726 0
0.000668 -0.050631 0
0.000450 -0.034952 0
0.000323 -0.022501 0
0.000310 -0.012299 0
0.000388 -0.003783 0
0.000501 0.003368 0
0.000582 0.009503 0
0.000623 0.015118 0
0.000637 0.020884 0
0.000637 0.027662 0
0.000631 0.036532 0
0.000622 0.048776 0
0.000612 0.065828 0
0.000601 0.089173 0
0.000590 0.120227 0
0.000577 0.160175 0
0.000563 0.209747 0
0.000543 0.268894 0
0.000517 0.336272 0
0.000481 0.408501 0
0.000433 0.479251 0
0.000369 0.538603 0
0.000287 0.573820 0
0.000189 0.572833 0
0.000075 0.529865 0
-0.000050 0.449328 0
-0.000189 0.344157 0
-0.000355 0.229810 0
-0.000593 0.119079 0
-0.001074 0.020500 0
-0.001983 -0.068767 0
-0.002539 -0.157011 0
-0.002886 -0.244044 0
-0.003170 -0.324774 0
-0.003433 -0.392465 0
-0.003546 -0.430136 0
-0.002893 -0.377773 0
0.000000 -0.000015 0
0.000000 -0.000049 0
0.003189 -0.376555 0
0.004160 -0.449095 0
0.004125 -0.438165 0
0.003838 -0.401024 0
0.003516 -0.354538 0
0.003195 -0.304877 0
0.002875 -0.255329 0
0.002546 -0.208178 0
0.002199 -0.165162 0
0.001828 -0.127527 0
0.001440 -0.095932 0
0.001050 -0.070397 0
0.000686 -0.050341 0
0.000392 -0.034742 0
0.000210 -0.022406 0
0.000167 -0.012322 0
0.000239 -0.003889 0
0.000374 0.003248 0
0.000496 0.009419 0
0.000572 0.015076 0
0.000610 0.020868 0
0.000623 0.027661 0
0.000624 0.036537 0
0.000619 0.048784 0
0.000612 0.065837 0
0.000605 0.089183 0
0.000598 0.120238 0
0.000590 0.160187 0
0.000579 0.209763 0
0.000565 0.268916 0
0.000543 0.336302 0
0.000510 0.408543 0
0.000462 0.479307 0
0.000397 0.538677 0
0.000309 0.573912 0
0.000197 0.572946 0
0.000059 0.529996 0
-0.000103 0.449479 0
-0.000295 0.344340 0
-0.000543 0.230063 0
-0.000911 0.119525 0
-0.001612 0.021302 0
-0.002743 -0.067924 0
-0.003526 -0.156451 0
-0.004057 -0.243644 0
-0.004471 -0.324447 0
-0.004786 -0.392287 0
-0.004778 -0.430586 0
-0.003612 -0.379860 0
0.000000 -0.000015 0
0.000000 -0.000050 0
0.003700 -0.378876 0
0.004965 -0.449665 0
0.005023 -0.438017 0
0.004720 -0.400688 0
0.004329 -0.354167 0
0.003916 -0.304499 0
0.003492 -0.254944 0
0.003055 -0.207779 0
0.002600 -0.164743 0
0.002125 -0.127089 0
0.001640 -0.095489 0
0.001164 -0.069973 0
0.000726 -0.049973 0
0.000374 -0.034476 0
0.000153 -0.022276 0
0.000085 -0.012328 0
0.000144 -0.003991 0
0.000276 0.003112 0
0.000416 0.009305 0
0.000520 0.015004 0
0.000580 0.020833 0
0.000608 0.027648 0
0.000617 0.036536 0
0.000618 0.048788 0
0.000617 0.065841 0
0.000615 0.089187 0
0.000614 0.120243 0
0.000613 0.160194 0
0.000611 0.209773 0
0.000604 0.268931 0
0.000591 0.336327 0
0.000565 0.408581 0
0.000522 0.479364 0
0.000456 0.538756 0
0.000360 0.574019 0
0.000227 0.573084 0
0.000051 0.530165 0
-0.000162 0.449682 0
-0.000420 0.344598 0
-0.000758 0.230426 0
-0.001255 0.120147 0
-0.002163 0.022332 0
-0.003482 -0.066853 0
-0.004445 -0.155697 0
-0.005121 -0.243099 0
-0.005624 -0.324045 0
-0.005948 -0.392158 0
-0.005805 -0.431310 0
-0.004251 -0.382551 0
0.000000 -0.000015 0
0.000000 -0.000050 0
0.004048 -0.381520 0
0.005543 -0.450418 0
0.005692 -0.437920 0
0.005398 -0.400330 0
0.004970 -0.353734 0
0.004492 -0.304040 0
0.003989 -0.254468 0
0.003466 -0.207286 0
0.002925 -0.164233 0
0.002369 -0.126567 0
0.001810 -0.094970 0
0.001271 -0.069483 0
0.000781 -0.049551 0
0.000387 -0.034169 0
0.000137 -0.022117 0
0.000046 -0.012314 0
0.000089 -0.004080 0
0.000209 0.002976 0
0.000352 0.009176 0
0.000472 0.014912 0
0.000551 0.020780 0
0.000594 0.027623 0
0.000613 0.036526 0
0.000621 0.048785 0
0.000626 0.065840 0
0.000631 0.089185 0
0.000639 0.120240 0
0.000648 0.160191 0
0.000657 0.209772 0
0.000664 0.268935 0
0.000664 0.336341 0
0.000651 0.408611 0
0.000617 0.479417 0
0.000553 0.538840 0
0.000447 0.574142 0
0.000289 0.573254 0
0.000069 0.530385 0
-0.000208 0.449950 0
-0.000539 0.344936 0
-0.000970 0.230898 0
-0.001593 0.120930 0
-0.002689 0.023528 0
-0.004130 -0.065642 0
-0.005216 -0.154813 0
-0.005990 -0.242464 0
-0.006542 -0.323619 0
-0.006845 -0.392106 0
-0.006571 -0.432283 0
-0.004703 -0.385666 0
0.000000 -0.000015 0
0.000000 -0.000050 0
0.004326 -0.384419 0
0.005988 -0.451309 0
0.006211 -0.437872 0
0.005935 -0.399966 0
0.005486 -0.353261 0
0.004963 -0.303518 0
0.004398 -0.253917 0
0.003806 -0.206715 0
0.003196 -0.163646 0
0.002575 -0.125975 0
0.001958 -0.094390 0
0.001371 -0.068943 0
0.000843 -0.049089 0
0.000420 -0.033832 0
0.000146 -0.021935 0
0.000035 -0.012280 0
0.000059 -0.004154 0
0.000166 0.002849 0
0.000304 0.009042 0
0.000432 0.014805 0
0.000525 0.020712 0
0.000581 0.027586 0
0.000611 0.036508 0
0.000627 0.048775 0
0.000639 0.065831 0
0.000654 0.089174 0
0.000673 0.120226 0
0.000696 0.160175 0
0.000722 0.209756 0
0.000747 0.268924 0
0.000766 0.336340 0
0.000771 0.408628 0
0.000752 0.479462 0
0.000695 0.538926 0
0.000582 0.574282 0
0.000399 0.573462 0
0.000131 0.530662 0
-0.000220 0.450291 0
-0.000632 0.345360 0
-0.001157 0.231480 0
-0.001904 0.121867 0
-0.003173 0.024869 0
-0.004706 -0.064326 0
-0.005879 -0.153837 0
-0.006717 -0.241773 0
-0.007292 -0.323190 0
-0.007561 -0.392129 0
-0.007177 -0.433451 0
-0.005071 -0.389122 0
0.000000 -0.000016 0
0.000000 -0.000050 0
0.004540 -0.387509 0
0.006324 -0.452303 0
0.006604 -0.437867 0
0.006347 -0.399605 0
0.005888 -0.352762 0
0.005333 -0.302951 0
0.004723 -0.253311 0
0.004079 -0.206084 0
0.003414 -0.163001 0
0.002743 -0.125330 0
0.002082 -0.093766 0
0.001460 -0.068368 0
0.000906 -0.048600 0
0.000462 -0.033472 0
0.000170 -0.021732 0
0.000040 -0.012226 0
0.000044 -0.004211 0
0.000139 0.002731 0
0.000270 0.008910 0
0.000400 0.014691 0
0.000503 0.020631 0
0.000571 0.027538 0
0.000611 0.036481 0
0.000636 0.048756 0
0.000658 0.065813 0
0.000684 0.089152 0
0.000717 0.120198 0
0.000758 0.160142 0
0.000805 0.209721 0
0.000854 0.268891 0
0.000899 0.336317 0
0.000930 0.408625 0
0.000933 0.479493 0
0.000889 0.539009 0
0.000776 0.574437 0
0.000569 0.573706 0
0.000251 0.531004 0
-0.000184 0.450713 0
-0.000683 0.345873 0
-0.001307 0.232170 0
-0.002175 0.122946 0
-0.003599 0.026331 0
-0.005201 -0.062936 0
-0.006433 -0.152802 0
-0.007309 -0.241052 0
-0.007889 -0.322774 0
-0.008121 -0.392221 0
-0.007646 -0.434774 0
-0.005360 -0.392842 0
0.000000 -0.000016 0
0.000000 -0.000051 0
0.004710 -0.390744 0
0.006579 -0.453372 0
0.006899 -0.437895 0
0.006659 -0.399250 0
0.006197 -0.352247 0
0.005621 -0.302352 0
0.004977 -0.252663 0
0.004293 -0.205406 0
0.003587 -0.162310 0
0.002877 -0.124643 0
0.002183 -0.093108 0
0.001535 -0.067768 0
0.000965 -0.048092 0
0.000508 -0.033095 0
0.000199 -0.021512 0
0.000051 -0.012155 0
0.000039 -0.004253 0
0.000122 0.002623 0
0.000247 0.008781 0
0.000375 0.014573 0
0.000485 0.020540 0
0.000564 0.027478 0
0.000614 0.036444 0
0.000649 0.048728 0
0.000682 0.065783 0
0.000721 0.089115 0
0.000772 0.120152 0
0.000835 0.160087 0
0.000908 0.209660 0
0.000988 0.268830 0
0.001067 0.336264 0
0.001132 0.408594 0
0.001167 0.479503 0
0.001145 0.539083 0
0.001037 0.574602 0
0.000811 0.573986 0
0.000444 0.531416 0
-0.000083 0.451224 0
-0.000682 0.346482 0
-0.001408 0.232972 0
-0.002396 0.124159 0
-0.003957 0.027895 0
-0.005615 -0.061491 0
-0.006887 -0.151728 0
-0.007784 -0.240317 0
-0.008358 -0.322379 0
-0.008553 -0.392372 0
-0.008009 -0.436213 0
-0.005590 -0.396768 0
0.000000 -0.000017 0
0.000000 -0.000051 0
0.004844 -0.394087 0
0.006767 -0.454492 0
0.007115 -0.437947 0
0.006889 -0.398903 0
0.006426 -0.351723 0
0.005836 -0.301731 0
0.005169 -0.251984 0
0.004456 -0.204694 0
0.003719 -0.161584 0
0.002980 -0.123925 0
0.002261 -0.092424 0
0.001595 -0.067151 0
0.001015 -0.047572 0
0.000549 -0.032706 0
0.000228 -0.021276 0
0.000065 -0.012067 0
0.000038 -0.004281 0
0.000109 0.002523 0
0.000229 0.008656 0
0.000356 0.014453 0
0.000470 0.020443 0
0.000558 0.027409 0
0.000619 0.036396 0
0.000666 0.048689 0
0.000711 0.065741 0
0.000767 0.089062 0
0.000838 0.120085 0
0.000927 0.160006 0
0.001033 0.209567 0
0.001151 0.268732 0
0.001272 0.336172 0
0.001382 0.408525 0
0.001458 0.479481 0
0.001468 0.539139 0
0.001375 0.574771 0
0.001136 0.574299 0
0.000720 0.531898 0
0.000104 0.451838 0
-0.000621 0.347198 0
-0.001453 0.233884 0
-0.002560 0.125496 0
-0.004243 0.029550 0
-0.005947 -0.060006 0
-0.007246 -0.150632 0
-0.008152 -0.239581 0
-0.008713 -0.322006 0
-0.008876 -0.392570 0
-0.008281 -0.437737 0
-0.005770 -0.400851 0
0.000000 -0.000018 0
0.000000 -0.000051 0
0.004948 -0.397511 0
0.006902 -0.455643 0
0.007265 -0.438016 0
0.007050 -0.398562 0
0.006589 -0.351195 0
0.005990 -0.301095 0
0.005307 -0.251283 0
0.004573 -0.203957 0
0.003814 -0.160834 0
0.003054 -0.123184 0
0.002317 -0.091723 0
0.001639 -0.066522 0
0.001053 -0.047046 0
0.000583 -0.032308 0
0.000252 -0.021027 0
0.000076 -0.011965 0
0.000037 -0.004297 0
0.000098 0.002432 0
0.000213 0.008534 0
0.000340 0.014332 0
0.000457 0.020339 0
0.000553 0.027329 0
0.000626 0.036336 0
0.000685 0.048636 0
0.000746 0.065682 0
0.000820 0.088988 0
0.000916 0.119992 0
0.001036 0.159892 0
0.001180 0.209437 0
0.001344 0.268591 0
0.001516 0.336033 0
0.001681 0.408408 0
0.001810 0.479416 0
0.001866 0.539166 0
0.001797 0.574935 0
0.001552 0.574642 0
0.001089 0.532448 0
0.000386 0.452565 0
-0.000489 0.348039 0
-0.001433 0.234911 0
-0.002660 0.126949 0
-0.004452 0.031283 0
-0.006200 -0.058488 0
-0.007515 -0.149524 0
-0.008422 -0.238850 0
-0.008968 -0.321655 0
-0.009103 -0.392805 0
-0.008475 -0.439318 0
-0.005909 -0.405049 0
0.000000 -0.000019 0
0.000000 -0.000052 0
0.005029 -0.400990 0
0.006994 -0.456809 0
0.007361 -0.438095 0
0.007153 -0.398227 0
0.006694 -0.350664 0
0.006091 -0.300449 0
0.005397 -0.250567 0
0.004649 -0.203201 0
0.003875 -0.160065 0
0.003101 -0.122428 0
0.002353 -0.091010 0
0.001666 -0.065886 0
0.001076 -0.046516 0
0.000605 -0.031905 0
0.000268 -0.020769 0
0.000081 -0.011852 0
0.000033 -0.004303 0
0.000085 0.002347 0
0.000198 0.008413 0
0.000326 0.014209 0
0.000445 0.020230 0
0.000549 0.027239 0
0.000634 0.036263 0
0.000707 0.048569 0
0.000785 0.065606 0
0.000881 0.088892 0
0.001005 0.119868 0
0.001162 0.159741 0
0.001351 0.209260 0
0.001568 0.268396 0
0.001802 0.335835 0
0.002033 0.408231 0
0.002229 0.479296 0
0.002341 0.539152 0
0.002310 0.575085 0
0.002067 0.575007 0
0.001561 0.533064 0
0.000770 0.453416 0
-0.000274 0.349018 0
-0.001345 0.236055 0
-0.002694 0.128515 0
-0.004585 0.033090 0
-0.006373 -0.056944 0
-0.007697 -0.148410 0
-0.008600 -0.238128 0
-0.009131 -0.321325 0
-0.009245 -0.393063 0
-0.008601 -0.440931 0
-0.006009 -0.409326 0
0.000000 -0.000020 0
0.000000 -0.000052 0
0.005090 -0.404505 0
0.007048 -0.457975 0
0.007411 -0.438176 0
0.007207 -0.397895 0
0.006750 -0.350132 0
0.006144 -0.299798 0
0.005444 -0.249841 0
0.004688 -0.202435 0
0.003905 -0.159286 0
0.003122 -0.121662 0
0.002368 -0.090288 0
0.001676 -0.065246 0
0.001084 -0.045985 0
0.000612 -0.031500 0
0.000272 -0.020504 0
0.000078 -0.011730 0
0.000022 -0.004301 0
0.000069 0.002267 0
0.000180 0.008293 0
0.000310 0.014084 0
0.000434 0.020116 0
0.000545 0.027140 0
0.000642 0.036177 0
0.000731 0.048486 0
0.000828 0.065509 0
0.000948 0.088768 0
0.001105 0.119711 0
0.001303 0.159546 0
0.001543 0.209030 0
0.001823 0.268140 0
0.002128 0.335568 0
0.002438 0.407981 0
0.002714 0.479107 0
0.002899 0.539085 0
0.002917 0.575210 0
0.002686 0.575390 0
0.002141 0.533745 0
0.001259 0.454400 0
0.000049 0.350154 0
-0.001197 0.237331 0
-0.002664 0.130189 0
-0.004641 0.034962 0
-0.006467 -0.055376 0
-0.007795 -0.147296 0
-0.008691 -0.237416 0
-0.009207 -0.321011 0
-0.009307 -0.393334 0
-0.008664 -0.442554 0
-0.006076 -0.413650 0
0.000000 -0.000022 0
0.000000 -0.000052 0
0.005133 -0.408038 0
0.007070 -0.459131 0
0.007421 -0.438254 0
0.007217 -0.397565 0
0.006761 -0.349601 0
0.006155 -0.299143 0
0.005452 -0.249110 0
0.004692 -0.201662 0
0.003905 -0.158500 0
0.003120 -0.120891 0
0.002363 -0.089563 0
0.001669 -0.064602 0
0.001076 -0.045453 0
0.000605 -0.031094 0
0.000264 -0.020235 0
0.000065 -0.011602 0
0.000003 -0.004294 0
0.000047 0.002189 0
0.000157 0.008172 0
0.000292 0.013955 0
0.000422 0.019995 0
0.000540 0.027031 0
0.000650 0.036077 0
0.000756 0.048384 0
0.000874 0.065389 0
0.001022 0.088615 0
0.001214 0.119514 0
0.001458 0.159302 0
0.001758 0.208740 0
0.002107 0.267811 0
0.002496 0.335220 0
0.002897 0.407645 0
0.003267 0.478836 0
0.003538 0.538950 0
0.003621 0.575298 0
0.003413 0.575782 0
0.002834 0.534491 0
0.001856 0.455508 0
0.000491 0.351473 0
-0.000984 0.238769 0
-0.002569 0.131959 0
-0.004620 0.036893 0
-0.006483 -0.053790 0
-0.007809 -0.146186 0
-0.008697 -0.236715 0
-0.009201 -0.320708 0
-0.009294 -0.393607 0
-0.008666 -0.444163 0
-0.006110 -0.417990 0
0.000000 -0.000024 0
0.000000 -0.000052 0
0.005160 -0.411574 0
0.007062 -0.460264 0
0.007394 -0.438323 0
0.007187 -0.397235 0
0.006731 -0.349070 0
0.006125 -0.298488 0
0.005423 -0.248378 0
0.004663 -0.200888 0
0.003878 -0.157714 0
0.003095 -0.120120 0
0.002340 -0.088837 0
0.001646 -0.063958 0
0.001053 -0.044921 0
0.000584 -0.030688 0
0.000243 -0.019963 0
0.000040 -0.011469 0
-0.000026 -0.004284 0
0.000018 0.002113 0
0.000130 0.008048 0
0.000270 0.013820 0
0.000407 0.019867 0
0.000534 0.026912 0
0.000656 0.035962 0
0.000781 0.048262 0
0.000921 0.065243 0
0.001099 0.088428 0
0.001331 0.119274 0
0.001627 0.159003 0
0.001991 0.208381 0
0.002420 0.267402 0
0.002901 0.334779 0
0.003406 0.407210 0
0.003885 0.478466 0
0.004260 0.538731 0
0.004422 0.575335 0
0.004250 0.576177 0
0.003644 0.535302 0
0.002569 0.456743 0
0.001045 0.352994 0
-0.000697 0.240391 0
-0.002400 0.133825 0
-0.004525 0.038876 0
-0.006420 -0.052187 0
-0.007740 -0.145082 0
-0.008616 -0.236025 0
-0.009111 -0.320413 0
-0.009207 -0.393869 0
-0.008611 -0.445738 0
-0.006113 -0.422317 0
0.000000 -0.000026 0
0.000000 -0.000052 0
0.005172 -0.415100 0
0.007027 -0.461365 0
0.007333 -0.438379 0
0.007118 -0.396902 0
0.006662 -0.348539 0
0.006057 -0.297835 0
0.005357 -0.247649 0
0.004602 -0.200117 0
0.003823 -0.156931 0
0.003046 -0.119353 0
0.002298 -0.088114 0
0.001608 -0.063316 0
0.001017 -0.044390 0
0.000548 -0.030283 0
0.000208 -0.019691 0
0.000002 -0.011333 0
-0.000066 -0.004273 0
-0.000019 0.002034 0
0.000095 0.007921 0
0.000241 0.013678 0
0.000387 0.019731 0
0.000524 0.026781 0
0.000660 0.035830 0
0.000803 0.048119 0
0.000969 0.065070 0
0.001179 0.088205 0
0.001454 0.118987 0
0.001805 0.158643 0
0.002239 0.207947 0
0.002755 0.266901 0
0.003340 0.334233 0
0.003962 0.406661 0
0.004566 0.477982 0
0.005061 0.538413 0
0.005320 0.575308 0
0.005198 0.576561 0
0.004575 0.536173 0
0.003404 0.458107 0
0.001715 0.354739 0
-0.000317 0.242214 0
-0.002180 0.135787 0
-0.004371 0.040913 0
-0.006279 -0.050575 0
-0.007583 -0.143990 0
-0.008446 -0.235344 0
-0.008936 -0.320117 0
-0.009045 -0.394107 0
-0.008497 -0.447257 0
-0.006084 -0.426601 0
0.000000 -0.000028 0
0.000000 -0.000052 0
0.005171 -0.418602 0
0.006966 -0.462424 0
0.007239 -0.438414 0
0.007012 -0.396563 0
0.006552 -0.348008 0
0.005949 -0.297184 0
0.005254 -0.246924 0
0.004507 -0.199354 0
0.003738 -0.156158 0
0.002974 -0.118595 0
0.002237 -0.087399 0
0.001555 -0.062677 0
0.000966 -0.043860 0
0.000499 -0.029879 0
0.000160 -0.019418 0
-0.000048 -0.011195 0
-0.000116 -0.004263 0
-0.000067 0.001952 0
0.000053 0.007788 0
0.000206 0.013528 0
0.000362 0.019585 0
0.000510 0.026639 0
0.000659 0.035683 0
0.000822 0.047953 0
0.001014 0.064867 0
0.001259 0.087943 0
0.001578 0.118648 0
0.001989 0.158217 0
0.002499 0.207431 0
0.003109 0.266302 0
0.003806 0.333572 0
0.004558 0.405984 0
0.005302 0.477367 0
0.005934 0.537977 0
0.006309 0.575198 0
0.006256 0.576922 0
0.005628 0.537096 0
0.004367 0.459602 0
0.002507 0.356715 0
0.000203 0.244286 0
-0.001927 0.137879 0
-0.004143 0.042975 0
-0.006056 -0.048975 0
-0.007333 -0.142916 0
-0.008178 -0.234672 0
-0.008669 -0.319814 0
-0.008802 -0.394308 0
-0.008321 -0.448699 0
-0.006022 -0.430813 0
0.000000 -0.000030 0
0.000000 -0.000053 0
0.005154 -0.422066 0
0.006877 -0.463433 0
0.007109 -0.438425 0
0.006866 -0.396216 0
0.006401 -0.347475 0
0.005799 -0.296537 0
0.005111 -0.246207 0
0.004375 -0.198601 0
0.003621 -0.155398 0
0.002874 -0.117852 0
0.002155 -0.086696 0
0.001485 -0.062045 0
0.000902 -0.043334 0
0.000437 -0.029477 0
0.000099 -0.019143 0
-0.000110 -0.011057 0
-0.000175 -0.004255 0
-0.000126 0.001866 0
0.000001 0.007649 0
0.000161 0.013369 0
0.000328 0.019427 0
0.000488 0.026484 0
0.000652 0.035518 0
0.000835 0.047764 0
0.001054 0.064634 0
0.001334 0.087641 0
0.001701 0.118256 0
0.002173 0.157722 0
0.002764 0.206827 0
0.003474 0.265594 0
0.004292 0.332784 0
0.005185 0.405165 0
0.006083 0.476605 0
0.006872 0.537405 0
0.007383 0.574986 0
0.007419 0.577242 0
0.006806 0.538062 0
0.005465 0.461229 0
0.003434 0.358903 0
0.000877 0.246647 0
-0.001607 0.140133 0
-0.003802 0.045042 0
-0.005738 -0.047385 0
-0.006976 -0.141867 0
-0.007799 -0.234008 0
-0.008300 -0.319493 0
-0.008472 -0.394455 0
-0.008079 -0.450037 0
-0.005925 -0.434922 0
0.000000 -0.000033 0
0.000000 -0.000053 0
0.005122 -0.425479 0
0.006759 -0.464379 0
0.006942 -0.438404 0
0.006678 -0.395855 0
0.006204 -0.346940 0
0.005602 -0.295894 0
0.004923 -0.245501 0
0.004203 -0.197864 0
0.003469 -0.154657 0
0.002745 -0.117129 0
0.002048 -0.086010 0
0.001396 -0.061424 0
0.000823 -0.042813 0
0.000362 -0.029076 0
0.000023 -0.018870 0
-0.000181 -0.010921 0
-0.000246 -0.004247 0
-0.000197 0.001776 0
-0.000063 0.007501 0
0.000106 0.013201 0
0.000284 0.019257 0
0.000457 0.026315 0
0.000636 0.035336 0
0.000838 0.047551 0
0.001085 0.064368 0
0.001401 0.087297 0
0.001815 0.117809 0
0.002351 0.157154 0
0.003024 0.206131 0
0.003839 0.264773 0
0.004786 0.331861 0
0.005830 0.404192 0
0.006897 0.475680 0
0.007859 0.536677 0
0.008529 0.574650 0
0.008680 0.577499 0
0.008107 0.539050 0
0.006710 0.462974 0
0.004522 0.361304 0
0.001707 0.249326 0
-0.001247 0.142558 0
-0.003467 0.047107 0
-0.005333 -0.045802 0