# vtk DataFile Version 2.0
generated by CFD-lab course output (written by Tobias Neckel) 
ASCII

DATASET STRUCTURED_GRID
DIMENSIONS  51 51 1 
POINTS 2601 float

0.000000 0.000000 0
0.020000 0.000000 0
0.040000 0.000000 0
0.060000 0.000000 0
0.080000 0.000000 0
0.100000 0.000000 0
0.120000 0.000000 0
0.140000 0.000000 0
0.160000 0.000000 0
0.180000 0.000000 0
0.200000 0.000000 0
0.220000 0.000000 0
0.240000 0.000000 0
0.260000 0.000000 0
0.280000 0.000000 0
0.300000 0.000000 0
0.320000 0.000000 0
0.340000 0.000000 0
0.360000 0.000000 0
0.380000 0.000000 0
0.400000 0.000000 0
0.420000 0.000000 0
0.440000 0.000000 0
0.460000 0.000000 0
0.480000 0.000000 0
0.500000 0.000000 0
0.520000 0.000000 0
0.540000 0.000000 0
0.560000 0.000000 0
0.580000 0.000000 0
0.600000 0.000000 0
0.620000 0.000000 0
0.640000 0.000000 0
0.660000 0.000000 0
0.680000 0.000000 0
0.700000 0.000000 0
0.720000 0.000000 0
0.740000 0.000000 0
0.760000 0.000000 0
0.780000 0.000000 0
0.800000 0.000000 0
0.820000 0.000000 0
0.840000 0.000000 0
0.860000 0.000000 0
0.880000 0.000000 0
0.900000 0.000000 0
0.920000 0.000000 0
0.940000 0.000000 0
0.960000 0.000000 0
0.980000 0.000000 0
1.000000 0.000000 0
0.000000 0.020000 0
0.020000 0.020000 0
0.040000 0.020000 0
0.060000 0.020000 0
0.080000 0.020000 0
0.100000 0.020000 0
0.120000 0.020000 0
0.140000 0.020000 0
0.160000 0.020000 0
0.180000 0.020000 0
0.200000 0.020000 0
0.220000 0.020000 0
0.240000 0.020000 0
0.260000 0.020000 0
0.280000 0.020000 0
0.300000 0.020000 0
0.320000 0.020000 0
0.340000 0.020000 0
0.360000 0.020000 0
0.380000 0.020000 0
0.400000 0.020000 0
0.420000 0.020000 0
0.440000 0.020000 0
0.460000 0.020000 0
0.480000 0.020000 0
0.500000 0.020000 0
0.520000 0.020000 0
0.540000 0.020000 0
0.560000 0.020000 0
0.580000 0.020000 0
0.600000 0.020000 0
0.620000 0.020000 0
0.640000 0.020000 0
0.660000 0.020000 0
0.680000 0.020000 0
0.700000 0.020000 0
0.720000 0.020000 0
0.740000 0.020000 0
0.760000 0.020000 0
0.780000 0.020000 0
0.800000 0.020000 0
0.820000 0.020000 0
0.840000 0.020000 0
0.860000 0.020000 0
0.880000 0.020000 0
0.900000 0.020000 0
0.920000 0.020000 0
0.940000 0.020000 0
0.960000 0.020000 0
0.980000 0.020000 0
1.000000 0.020000 0
0.000000 0.040000 0
0.020000 0.040000 0
0.040000 0.040000 0
0.060000 0.040000 0
0.080000 0.040000 0
0.100000 0.040000 0
0.120000 0.040000 0
0.140000 0.040000 0
0.160000 0.040000 0
0.180000 0.040000 0
0.200000 0.040000 0
0.220000 0.040000 0
0.240000 0.040000 0
0.260000 0.040000 0
0.280000 0.040000 0
0.300000 0.040000 0
0.320000 0.040000 0
0.340000 0.040000 0
0.360000 0.040000 0
0.380000 0.040000 0
0.400000 0.040000 0
0.420000 0.040000 0
0.440000 0.040000 0
0.460000 0.040000 0
0.480000 0.040000 0
0.500000 0.040000 0
0.520000 0.040000 0
0.540000 0.040000 0
0.560000 0.040000 0
0.580000 0.040000 0
0.600000 0.040000 0
0.620000 0.040000 0
0.640000 0.040000 0
0.660000 0.040000 0
0.680000 0.040000 0
0.700000 0.040000 0
0.720000 0.040000 0
0.740000 0.040000 0
0.760000 0.040000 0
0.780000 0.040000 0
0.800000 0.040000 0
0.820000 0.040000 0
0.840000 0.040000 0
0.860000 0.040000 0
0.880000 0.040000 0
0.900000 0.040000 0
0.920000 0.040000 0
0.940000 0.040000 0
0.960000 0.040000 0
0.980000 0.040000 0
1.000000 0.040000 0
0.000000 0.060000 0
0.020000 0.060000 0
0.040000 0.060000 0
0.060000 0.060000 0
0.080000 0.060000 0
0.100000 0.060000 0
0.120000 0.060000 0
0.140000 0.060000 0
0.160000 0.060000 0
0.180000 0.060000 0
0.200000 0.060000 0
0.220000 0.060000 0
0.240000 0.060000 0
0.260000 0.060000 0
0.280000 0.060000 0
0.300000 0.060000 0
0.320000 0.060000 0
0.340000 0.060000 0
0.360000 0.060000 0
0.380000 0.060000 0
0.400000 0.060000 0
0.420000 0.060000 0
0.440000 0.060000 0
0.460000 0.060000 0
0.480000 0.060000 0
0.500000 0.060000 0
0.520000 0.060000 0
0.540000 0.060000 0
0.560000 0.060000 0
0.580000 0.060000 0
0.600000 0.060000 0
0.620000 0.060000 0
0.640000 0.060000 0
0.660000 0.060000 0
0.680000 0.060000 0
0.700000 0.060000 0
0.720000 0.060000 0
0.740000 0.060000 0
0.760000 0.060000 0
0.780000 0.060000 0
0.800000 0.060000 0
0.820000 0.060000 0
0.840000 0.060000 0
0.860000 0.060000 0
0.880000 0.060000 0
0.900000 0.060000 0
0.920000 0.060000 0
0.940000 0.060000 0
0.960000 0.060000 0
0.980000 0.060000 0
1.000000 0.060000 0
0.000000 0.080000 0
0.020000 0.080000 0
0.040000 0.080000 0
0.060000 0.080000 0
0.080000 0.080000 0
0.100000 0.080000 0
0.120000 0.080000 0
0.140000 0.080000 0
0.160000 0.080000 0
0.180000 0.080000 0
0.200000 0.080000 0
0.220000 0.080000 0
0.240000 0.080000 0
0.260000 0.080000 0
0.280000 0.080000 0
0.300000 0.080000 0
0.320000 0.080000 0
0.340000 0.080000 0
0.360000 0.080000 0
0.380000 0.080000 0
0.400000 0.080000 0
0.420000 0.080000 0
0.440000 0.080000 0
0.460000 0.080000 0
0.480000 0.080000 0
0.500000 0.080000 0
0.520000 0.080000 0
0.540000 0.080000 0
0.560000 0.080000 0
0.580000 0.080000 0
0.600000 0.080000 0
0.620000 0.080000 0
0.640000 0.080000 0
0.660000 0.080000 0
0.680000 0.080000 0
0.700000 0.080000 0
0.720000 0.080000 0
0.740000 0.080000 0
0.760000 0.080000 0
0.780000 0.080000 0
0.800000 0.080000 0
0.820000 0.080000 0
0.840000 0.080000 0
0.860000 0.080000 0
0.880000 0.080000 0
0.900000 0.080000 0
0.920000 0.080000 0
0.940000 0.080000 0
0.960000 0.080000 0
0.980000 0.080000 0
1.000000 0.080000 0
0.000000 0.100000 0
0.020000 0.100000 0
0.040000 0.100000 0
0.060000 0.100000 0
0.080000 0.100000 0
0.100000 0.100000 0
0.120000 0.100000 0
0.140000 0.100000 0
0.160000 0.100000 0
0.180000 0.100000 0
0.200000 0.100000 0
0.220000 0.100000 0
0.240000 0.100000 0
0.260000 0.100000 0
0.280000 0.100000 0
0.300000 0.100000 0
0.320000 0.100000 0
0.340000 0.100000 0
0.360000 0.100000 0
0.380000 0.100000 0
0.400000 0.100000 0
0.420000 0.100000 0
0.440000 0.100000 0
0.460000 0.100000 0
0.480000 0.100000 0
0.500000 0.100000 0
0.520000 0.100000 0
0.540000 0.100000 0
0.560000 0.100000 0
0.580000 0.100000 0
0.600000 0.100000 0
0.620000 0.100000 0
0.640000 0.100000 0
0.660000 0.100000 0
0.680000 0.100000 0
0.700000 0.100000 0
0.720000 0.100000 0
0.740000 0.100000 0
0.760000 0.100000 0
0.780000 0.100000 0
0.800000 0.100000 0
0.820000 0.100000 0
0.840000 0.100000 0
0.860000 0.100000 0
0.880000 0.100000 0
0.900000 0.100000 0
0.920000 0.100000 0
0.940000 0.100000 0
0.960000 0.100000 0
0.980000 0.100000 0
1.000000 0.100000 0
0.000000 0.120000 0
0.020000 0.120000 0
0.040000 0.120000 0
0.060000 0.120000 0
0.080000 0.120000 0
0.100000 0.120000 0
0.120000 0.120000 0
0.140000 0.120000 0
0.160000 0.120000 0
0.180000 0.120000 0
0.200000 0.120000 0
0.220000 0.120000 0
0.240000 0.120000 0
0.260000 0.120000 0
0.280000 0.120000 0
0.300000 0.120000 0
0.320000 0.120000 0
0.340000 0.120000 0
0.360000 0.120000 0
0.380000 0.120000 0
0.400000 0.120000 0
0.420000 0.120000 0
0.440000 0.120000 0
0.460000 0.120000 0
0.480000 0.120000 0
0.500000 0.120000 0
0.520000 0.120000 0
0.540000 0.120000 0
0.560000 0.120000 0
0.580000 0.120000 0
0.600000 0.120000 0
0.620000 0.120000 0
0.640000 0.120000 0
0.660000 0.120000 0
0.680000 0.120000 0
0.700000 0.120000 0
0.720000 0.120000 0
0.740000 0.120000 0
0.760000 0.120000 0
0.780000 0.120000 0
0.800000 0.120000 0
0.820000 0.120000 0
0.840000 0.120000 0
0.860000 0.120000 0
0.880000 0.120000 0
0.900000 0.120000 0
0.920000 0.120000 0
0.940000 0.120000 0
0.960000 0.120000 0
0.980000 0.120000 0
1.000000 0.120000 0
0.000000 0.140000 0
0.020000 0.140000 0
0.040000 0.140000 0
0.060000 0.140000 0
0.080000 0.140000 0
0.100000 0.140000 0
0.120000 0.140000 0
0.140000 0.140000 0
0.160000 0.140000 0
0.180000 0.140000 0
0.200000 0.140000 0
0.220000 0.140000 0
0.240000 0.140000 0
0.260000 0.140000 0
0.280000 0.140000 0
0.300000 0.140000 0
0.320000 0.140000 0
0.340000 0.140000 0
0.360000 0.140000 0
0.380000 0.140000 0
0.400000 0.140000 0
0.420000 0.140000 0
0.440000 0.140000 0
0.460000 0.140000 0
0.480000 0.140000 0
0.500000 0.140000 0
0.520000 0.140000 0
0.540000 0.140000 0
0.560000 0.140000 0
0.580000 0.140000 0
0.600000 0.140000 0
0.620000 0.140000 0
0.640000 0.140000 0
0.660000 0.140000 0
0.680000 0.140000 0
0.700000 0.140000 0
0.720000 0.140000 0
0.740000 0.140000 0
0.760000 0.140000 0
0.780000 0.140000 0
0.800000 0.140000 0
0.820000 0.140000 0
0.840000 0.140000 0
0.860000 0.140000 0
0.880000 0.140000 0
0.900000 0.140000 0
0.920000 0.140000 0
0.940000 0.140000 0
0.960000 0.140000 0
0.980000 0.140000 0
1.000000 0.140000 0
0.000000 0.160000 0
0.020000 0.160000 0
0.040000 0.160000 0
0.060000 0.160000 0
0.080000 0.160000 0
0.100000 0.160000 0
0.120000 0.160000 0
0.140000 0.160000 0
0.160000 0.160000 0
0.180000 0.160000 0
0.200000 0.160000 0
0.220000 0.160000 0
0.240000 0.160000 0
0.260000 0.160000 0
0.280000 0.160000 0
0.300000 0.160000 0
0.320000 0.160000 0
0.340000 0.160000 0
0.360000 0.160000 0
0.380000 0.160000 0
0.400000 0.160000 0
0.420000 0.160000 0
0.440000 0.160000 0
0.460000 0.160000 0
0.480000 0.160000 0
0.500000 0.160000 0
0.520000 0.160000 0
0.540000 0.160000 0
0.560000 0.160000 0
0.580000 0.160000 0
0.600000 0.160000 0
0.620000 0.160000 0
0.640000 0.160000 0
0.660000 0.160000 0
0.680000 0.160000 0
0.700000 0.160000 0
0.720000 0.160000 0
0.740000 0.160000 0
0.760000 0.160000 0
0.780000 0.160000 0
0.800000 0.160000 0
0.820000 0.160000 0
0.840000 0.160000 0
0.860000 0.160000 0
0.880000 0.160000 0
0.900000 0.160000 0
0.920000 0.160000 0
0.940000 0.160000 0
0.960000 0.160000 0
0.980000 0.160000 0
1.000000 0.160000 0
0.000000 0.180000 0
0.020000 0.180000 0
0.040000 0.180000 0
0.060000 0.180000 0
0.080000 0.180000 0
0.100000 0.180000 0
0.120000 0.180000 0
0.140000 0.180000 0
0.160000 0.180000 0
0.180000 0.180000 0
0.200000 0.180000 0
0.220000 0.180000 0
0.240000 0.180000 0
0.260000 0.180000 0
0.280000 0.180000 0
0.300000 0.180000 0
0.320000 0.180000 0
0.340000 0.180000 0
0.360000 0.180000 0
0.380000 0.180000 0
0.400000 0.180000 0
0.420000 0.180000 0
0.440000 0.180000 0
0.460000 0.180000 0
0.480000 0.180000 0
0.500000 0.180000 0
0.520000 0.180000 0
0.540000 0.180000 0
0.560000 0.180000 0
0.580000 0.180000 0
0.600000 0.180000 0
0.620000 0.180000 0
[...]
POINT_DATA 2601 

VECTORS velocity float
0.000000 -0.245640 0
-0.000090 -0.548509 0
-0.000180 -0.586014 0
-0.000262 -0.530229 0
-0.000334 -0.448979 0
-0.000395 -0.350157 0
-0.000444 -0.235194 0
-0.000479 -0.106989 0
-0.000500 0.030065 0
-0.000506 0.169586 0
-0.000492 0.302696 0
-0.000456 0.420802 0
-0.000399 0.517632 0
-0.000322 0.589862 0
-0.000231 0.636938 0
-0.000130 0.660419 0
-0.000023 0.663140 0
0.000085 0.648597 0
0.000189 0.620648 0
0.000286 0.582990 0
0.000375 0.538739 0
0.000454 0.490410 0
0.000522 0.439969 0
0.000580 0.388926 0
0.000629 0.338444 0
0.000669 0.289431 0
0.000701 0.242602 0
0.000727 0.198511 0
0.000747 0.157523 0
0.000762 0.119739 0
0.000773 0.084857 0
0.000780 0.052006 0
0.000785 0.019605 0
0.000786 -0.014324 0
0.000784 -0.050314 0
0.000779 -0.087916 0
0.000770 -0.127419 0
0.000757 -0.169218 0
0.000739 -0.213378 0
0.000716 -0.259616 0
0.000686 -0.307415 0
0.000650 -0.356094 0
0.000606 -0.404866 0
0.000554 -0.452891 0
0.000494 -0.499238 0
0.000427 -0.542851 0
0.000352 -0.582657 0
0.000271 -0.617094 0
0.000183 -0.637534 0
0.000090 -0.575445 0
0.000000 -0.254267 0
0.000000 0.000045 0
0.001166 -0.548419 0
0.000873 -0.585928 0
0.000456 -0.530152 0
0.000142 -0.448913 0
-0.000091 -0.350102 0
-0.000265 -0.235152 0
-0.000398 -0.106961 0
-0.000498 0.030078 0
-0.000505 0.169582 0
-0.000491 0.302671 0
-0.000455 0.420755 0
-0.000398 0.517565 0
-0.000321 0.589778 0
-0.000229 0.636842 0
-0.000127 0.660315 0
-0.000019 0.663033 0
0.000089 0.648492 0
0.000195 0.620547 0
0.000295 0.582897 0
0.000386 0.538655 0
0.000467 0.490336 0
0.000537 0.439905 0
0.000598 0.388872 0
0.000648 0.338400 0
0.000690 0.289394 0
0.000724 0.242573 0
0.000751 0.198488 0
0.000773 0.157506 0
0.000791 0.119725 0
0.000809 0.084848 0
0.000829 0.052000 0
0.000866 0.019603 0
0.000953 -0.014324 0
0.001000 -0.050310 0
0.000993 -0.087909 0
0.000960 -0.127408 0
0.000917 -0.169203 0
0.000866 -0.213357 0
0.000806 -0.259590 0
0.000735 -0.307382 0
0.000650 -0.356054 0
0.000548 -0.404818 0
0.000425 -0.452835 0
0.000277 -0.499174 0
0.000097 -0.542780 0
-0.000131 -0.582578 0
-0.000431 -0.617010 0
-0.000835 -0.637443 0
-0.001144 -0.575353 0
0.000000 0.000045 0
0.000000 0.000045 0
0.002581 -0.549382 0
0.002277 -0.585304 0
0.001499 -0.529498 0
0.000868 -0.448431 0
0.000383 -0.349751 0
-0.000000 -0.234888 0
-0.000279 -0.106755 0
-0.000499 0.030172 0
-0.000526 0.169580 0
-0.000518 0.302646 0
-0.000481 0.420708 0
-0.000419 0.517497 0
-0.000336 0.589694 0
-0.000236 0.636744 0
-0.000126 0.660210 0
-0.000010 0.662924 0
0.000108 0.648383 0
0.000223 0.620443 0
0.000332 0.582799 0
0.000431 0.538567 0
0.000520 0.490258 0
0.000597 0.439838 0
0.000664 0.388815 0
0.000719 0.338352 0
0.000764 0.289355 0
0.000801 0.242541 0
0.000832 0.198462 0
0.000858 0.157483 0
0.000885 0.119703 0
0.000916 0.084820 0
0.000965 0.051949 0
0.001060 0.019481 0
0.001248 -0.014458 0
0.001345 -0.050354 0
0.001336 -0.087877 0
0.001272 -0.127342 0
0.001185 -0.169124 0
0.001084 -0.213267 0
0.000967 -0.259486 0
0.000830 -0.307259 0
0.000666 -0.355907 0
0.000470 -0.404641 0
0.000235 -0.452620 0
-0.000052 -0.498909 0
-0.000409 -0.542443 0
-0.000858 -0.582129 0
-0.001443 -0.616390 0
-0.002184 -0.636821 0
-0.002522 -0.576280 0
0.000000 0.000045 0
0.000000 0.000045 0
0.002986 -0.550696 0
0.002928 -0.584846 0
0.002092 -0.528743 0
0.001323 -0.447797 0
0.000686 -0.349234 0
0.000150 -0.234490 0
-0.000241 -0.106462 0
-0.000529 0.030324 0
-0.000595 0.169601 0
-0.000600 0.302627 0
-0.000562 0.420657 0
-0.000488 0.517420 0
-0.000387 0.589596 0
-0.000266 0.636632 0
-0.000133 0.660088 0
0.000007 0.662799 0
0.000147 0.648259 0
0.000283 0.620324 0
0.000410 0.582689 0
0.000526 0.538467 0
0.000629 0.490170 0
0.000718 0.439762 0
0.000792 0.388751 0
0.000854 0.338299 0
0.000904 0.289312 0
0.000944 0.242506 0
0.000978 0.198431 0
0.001010 0.157453 0
0.001045 0.119668 0
0.001092 0.084768 0
0.001169 0.051857 0
0.001309 0.019320 0
0.001521 -0.014609 0
0.001627 -0.050399 0
0.001616 -0.087836 0
0.001539 -0.127257 0
0.001427 -0.169014 0
0.001293 -0.213139 0
0.001134 -0.259336 0
0.000946 -0.307081 0
0.000722 -0.355695 0
0.000454 -0.404387 0
0.000133 -0.452312 0
-0.000259 -0.498530 0
-0.000736 -0.541974 0
-0.001312 -0.581545 0
-0.002017 -0.615684 0
-0.002803 -0.636364 0
-0.002905 -0.577537 0
0.000000 0.000045 0
0.000000 0.000045 0
0.003316 -0.552310 0
0.003366 -0.584410 0
0.002491 -0.527893 0
0.001624 -0.447025 0
0.000867 -0.348578 0
0.000213 -0.233961 0
-0.000278 -0.106077 0
-0.000616 0.030526 0
-0.000728 0.169652 0
-0.000748 0.302613 0
-0.000703 0.420596 0
-0.000608 0.517322 0
-0.000476 0.589471 0
-0.000318 0.636490 0
-0.000147 0.659937 0
0.000030 0.662644 0
0.000206 0.648107 0
0.000375 0.620179 0
0.000532 0.582556 0
0.000672 0.538348 0
0.000796 0.490067 0
0.000900 0.439674 0
0.000987 0.388679 0
0.001056 0.338240 0
0.001112 0.289265 0
0.001155 0.242467 0
0.001192 0.198396 0
0.001227 0.157416 0
0.001269 0.119620 0
0.001331 0.084695 0
0.001432 0.051732 0
0.001604 0.019130 0
0.001827 -0.014775 0
0.001936 -0.050448 0
0.001923 -0.087789 0
0.001835 -0.127154 0
0.001705 -0.168878 0
0.001543 -0.212974 0
0.001347 -0.259139 0
0.001113 -0.306846 0
0.000831 -0.355415 0
0.000496 -0.404053 0
0.000098 -0.451908 0
-0.000388 -0.498040 0
-0.000964 -0.541389 0
-0.001638 -0.580848 0
-0.002421 -0.614899 0
-0.003232 -0.635932 0
-0.003228 -0.579083 0
0.000000 0.000045 0
0.000000 0.000045 0
0.003457 -0.554062 0
0.003568 -0.584021 0
0.002670 -0.527001 0
0.001736 -0.446173 0
0.000892 -0.347823 0
0.000147 -0.233345 0
-0.000396 -0.105632 0
-0.000781 0.030774 0
-0.000938 0.169732 0
-0.000969 0.302601 0
-0.000909 0.420517 0
-0.000780 0.517193 0
-0.000603 0.589306 0
-0.000394 0.636303 0
-0.000168 0.659740 0
0.000061 0.662446 0
0.000287 0.647914 0
0.000502 0.619998 0
0.000698 0.582391 0
0.000873 0.538203 0
0.001023 0.489942 0
0.001148 0.439571 0
0.001250 0.388595 0
0.001330 0.338174 0
0.001390 0.289213 0
0.001437 0.242425 0
0.001474 0.198359 0
0.001511 0.157375 0
0.001558 0.119564 0
0.001630 0.084605 0
0.001749 0.051584 0
0.001941 0.018925 0
0.002166 -0.014941 0
0.002272 -0.050495 0
0.002255 -0.087735 0
0.002160 -0.127039 0
0.002016 -0.168722 0
0.001833 -0.212781 0
0.001608 -0.258906 0
0.001335 -0.306565 0
0.001005 -0.355078 0
0.000613 -0.403654 0
0.000150 -0.451428 0
-0.000410 -0.497468 0
-0.001062 -0.540724 0
-0.001805 -0.580087 0
-0.002635 -0.614090 0
-0.003452 -0.635557 0
-0.003375 -0.580769 0
0.000000 0.000045 0
0.000000 0.000046 0
0.003524 -0.555878 0
0.003627 -0.583623 0
0.002686 -0.526061 0
0.001690 -0.445248 0
0.000769 -0.346988 0
-0.000044 -0.232673 0
-0.000608 -0.105149 0
-0.001039 0.031069 0
-0.001239 0.169839 0
-0.001273 0.302584 0
-0.001186 0.420408 0
-0.001009 0.517016 0
-0.000769 0.589084 0
-0.000491 0.636055 0
-0.000195 0.659482 0
0.000103 0.662189 0
0.000393 0.647666 0
0.000666 0.619768 0
0.000914 0.582185 0
0.001131 0.538023 0
0.001316 0.489791 0
0.001467 0.439447 0
0.001587 0.388497 0
0.001678 0.338100 0
0.001745 0.289158 0
0.001793 0.242383 0
0.001830 0.198322 0
0.001866 0.157332 0
0.001915 0.119501 0
0.001993 0.084504 0
0.002123 0.051421 0
0.002326 0.018713 0
0.002549 -0.015105 0
0.002650 -0.050538 0
0.002631 -0.087677 0
0.002532 -0.126915 0
0.002379 -0.168551 0
0.002180 -0.212566 0
0.001931 -0.258641 0
0.001624 -0.306243 0
0.001253 -0.354692 0
0.000810 -0.403197 0
0.000289 -0.450885 0
-0.000330 -0.496828 0
-0.001048 -0.539994 0
-0.001848 -0.579275 0
-0.002719 -0.613252 0
-0.003555 -0.635192 0
-0.003465 -0.582535 0
0.000000 0.000046 0
0.000000 0.000046 0
0.003519 -0.557689 0
0.003563 -0.583183 0
0.002559 -0.525064 0
0.001492 -0.444256 0
0.000496 -0.346090 0
-0.000350 -0.231967 0
-0.000947 -0.104638 0
-0.001410 0.031405 0
-0.001643 0.169966 0
-0.001668 0.302549 0
-0.001540 0.420253 0
-0.001297 0.516776 0
-0.000976 0.588788 0
-0.000610 0.635729 0
-0.000225 0.659146 0
0.000158 0.661857 0
0.000529 0.647350 0
0.000875 0.619478 0
0.001185 0.581927 0
0.001454 0.537801 0
0.001680 0.489606 0
0.001863 0.439299 0
0.002005 0.388384 0
0.002110 0.338016 0
0.002183 0.289098 0
0.002232 0.242340 0
0.002266 0.198286 0
0.002298 0.157291 0
0.002344 0.119438 0
0.002423 0.084396 0
0.002560 0.051250 0
0.002768 0.018500 0
0.002985 -0.015265 0
0.003082 -0.050577 0
0.003062 -0.087616 0
0.002961 -0.126787 0
0.002803 -0.168370 0
0.002593 -0.212333 0
0.002325 -0.258350 0
0.001991 -0.305887 0
0.001583 -0.354264 0
0.001095 -0.402690 0
0.000522 -0.450288 0
-0.000148 -0.496132 0
-0.000924 -0.539206 0
-0.001779 -0.578416 0
-0.002694 -0.612383 0
-0.003563 -0.634812 0
-0.003495 -0.584325 0
0.000000 0.000046 0
0.000000 0.000046 0
0.003460 -0.559441 0
0.003401 -0.582663 0
0.002307 -0.523990 0
0.001156 -0.443185 0
0.000080 -0.345146 0
-0.000776 -0.231231 0
-0.001425 -0.104089 0
-0.001910 0.031766 0
-0.002161 0.170097 0
-0.002162 0.302481 0
-0.001974 0.420037 0
-0.001645 0.516453 0
-0.001223 0.588397 0
-0.000748 0.635304 0
-0.000255 0.658714 0
0.000232 0.661435 0
0.000700 0.646950 0
0.001132 0.619113 0
0.001517 0.581605 0
0.001849 0.537528 0
0.002125 0.489382 0
0.002345 0.439123 0
0.002512 0.388251 0
0.002632 0.337922 0
0.002711 0.289036 0
0.002760 0.242300 0
0.002789 0.198255 0
0.002813 0.157254 0
0.002853 0.119376 0
0.002929 0.084288 0
0.003068 0.051077 0
0.003275 0.018289 0
0.003485 -0.015420 0
0.003580 -0.050614 0
0.003560 -0.087555 0
0.003461 -0.126657 0
0.003302 -0.168183 0
0.003085 -0.212087 0
0.002802 -0.258039 0
0.002445 -0.305502 0
0.002004 -0.353796 0
0.001474 -0.402135 0
0.000851 -0.449642 0
0.000134 -0.495383 0
-0.000697 -0.538363 0
-0.001610 -0.577505 0
-0.002577 -0.611468 0
-0.003497 -0.634391 0
-0.003485 -0.586098 0
0.000000 0.000046 0
0.000000 0.000046 0
0.003353 -0.561090 0
0.003151 -0.582030 0
0.001941 -0.522818 0
0.000686 -0.442029 0
-0.000452 -0.344158 0
-0.001346 -0.230463 0
-0.002044 -0.103504 0
-0.002545 0.032142 0
-0.002798 0.170218 0
-0.002757 0.302361 0
-0.002489 0.419737 0
-0.002053 0.516025 0
-0.001507 0.587891 0
-0.000901 0.634760 0
-0.000279 0.658166 0
0.000331 0.660903 0
0.000913 0.646450 0
0.001447 0.618660 0
0.001921 0.581210 0
0.002325 0.537194 0
0.002658 0.489111 0
0.002922 0.438912 0
0.003118 0.388096 0
0.003256 0.337817 0
0.003342 0.288971 0
0.003388 0.242263 0
0.003409 0.198232 0
0.003423 0.157227 0
0.003452 0.119322 0
0.003522 0.084182 0
0.003657 0.050905 0
0.003861 0.018082 0
0.004063 -0.015570 0
0.004155 -0.050651 0
0.004139 -0.087497 0
0.004045 -0.126529 0
0.003888 -0.167994 0
0.003668 -0.211833 0
0.003375 -0.257711 0
0.002997 -0.305090 0
0.002527 -0.353293 0
0.001957 -0.401537 0
0.001285 -0.448947 0
0.000513 -0.494583 0
-0.000370 -0.537462 0
-0.001347 -0.576536 0
-0.002379 -0.610496 0
-0.003367 -0.633904 0
-0.003441 -0.587821 0
0.000000 0.000046 0
0.000000 0.000047 0
0.003205 -0.562592 0
0.002821 -0.581251 0
0.001471 -0.521525 0
0.000093 -0.440792 0
-0.001095 -0.343114 0
-0.002065 -0.229638 0
-0.002811 -0.102890 0
-0.003320 0.032520 0
-0.003558 0.170310 0
-0.003455 0.302171 0
-0.003085 0.419332 0
-0.002518 0.515470 0
-0.001824 0.587246 0
-0.001065 0.634076 0
-0.000291 0.657482 0
0.000462 0.660243 0
0.001176 0.645834 0
0.001829 0.618105 0
0.002404 0.580727 0
0.002893 0.536790 0
0.003293 0.488786 0
0.003605 0.438663 0
0.003836 0.387917 0
0.003993 0.337699 0
0.004086 0.288903 0
0.004129 0.242232 0
0.004140 0.198220 0
0.004140 0.157211 0
0.004155 0.119278 0
0.004213 0.084083 0
0.004342 0.050738 0
0.004538 0.017883 0
0.004731 -0.015714 0
0.004823 -0.050690 0
0.004813 -0.087445 0
0.004727 -0.126406 0
0.004577 -0.167806 0
0.004357 -0.211574 0
0.004055 -0.257368 0
0.003660 -0.304654 0
0.003160 -0.352756 0
0.002550 -0.400893 0
0.001827 -0.448199 0
0.000994 -0.493728 0
0.000056 -0.536502 0
-0.000994 -0.575496 0
-0.002104 -0.609449 0
-0.003179 -0.633329 0
-0.003365 -0.589465 0
0.000000 0.000046 0
0.000000 0.000047 0
0.003018 -0.563911 0
0.002418 -0.580296 0
0.000899 -0.520090 0
-0.000596 -0.439463 0
-0.001868 -0.342001 0
-0.002925 -0.228746 0
-0.003721 -0.102249 0
-0.004234 0.032889 0
-0.004439 0.170354 0
-0.004255 0.301889 0
-0.003760 0.418800 0
-0.003037 0.514764 0
-0.002170 0.586437 0
-0.001232 0.633227 0
-0.000284 0.656639 0
0.000633 0.659436 0
0.001500 0.645083 0
0.002289 0.617432 0
0.002980 0.580146 0
0.003565 0.536305 0
0.004041 0.488398 0
0.004410 0.438369 0
0.004679 0.387709 0
0.004858 0.337567 0
0.004959 0.288834 0
0.004998 0.242208 0
0.004997 0.198221 0
0.004979 0.157212 0
0.004976 0.119248 0
0.005019 0.083995 0
0.005136 0.050580 0
0.005323 0.017693 0
0.005507 -0.015855 0
0.005599 -0.050733 0
0.005598 -0.087402 0
0.005524 -0.126292 0
0.005383 -0.167623 0
0.005166 -0.211312 0
0.004858 -0.257014 0
0.004445 -0.304194 0
0.003916 -0.352183 0
0.003263 -0.400204 0
0.002486 -0.447392 0
0.001587 -0.492812 0
0.000577 -0.535474 0
-0.000550 -0.574376 0
-0.001754 -0.608311 0
-0.002935 -0.632643 0
-0.003260 -0.591000 0
0.000000 0.000046 0
0.000000 0.000047 0
0.002794 -0.565010 0
0.001946 -0.579132 0
0.000234 -0.518511 0
-0.001374 -0.438025 0
-0.002772 -0.340785 0
-0.003923 -0.227785 0
-0.004770 -0.101582 0
-0.005282 0.033238 0
-0.005437 0.170331 0
-0.005151 0.301492 0
-0.004508 0.418115 0
-0.003605 0.513881 0
-0.002539 0.585441 0
-0.001396 0.632189 0
-0.000249 0.655616 0
0.000854 0.658459 0
0.001895 0.644178 0
0.002837 0.616625 0
0.003661 0.579451 0
0.004355 0.535729 0
0.004917 0.487941 0
0.005351 0.438024 0
0.005664 0.387469 0
0.005868 0.337419 0
0.005977 0.288763 0
0.006012 0.242194 0
0.005996 0.198239 0
0.005958 0.157232 0
0.005933 0.119238 0
0.005956 0.083923 0
0.006059 0.050435 0
0.006233 0.017513 0
0.006408 -0.015991 0
0.006502 -0.050782 0
0.006513 -0.087370 0
0.006453 -0.126191 0
0.006324 -0.167448 0
0.006113 -0.211049 0
0.005800 -0.256648 0
0.005370 -0.303711 0
0.004809 -0.351574 0
0.004110 -0.399463 0
0.003271 -0.446522 0
0.002297 -0.491819 0
0.001199 -0.534366 0
-0.000012 -0.573166 0
-0.001327 -0.607064 0
-0.002635 -0.631822 0
-0.003126 -0.592400 0
0.000000 0.000046 0
0.000000 0.000047 0
0.002537 -0.565857 0
0.001409 -0.577736 0
-0.000502 -0.516770 0
-0.002257 -0.436457 0
-0.003798 -0.339451 0
-0.005052 -0.226748 0
-0.005954 -0.100889 0
-0.006460 0.033556 0
-0.006549 0.170223 0
-0.006141 0.300959 0
-0.005325 0.417253 0
-0.004214 0.512795 0
-0.002922 0.584229 0
-0.001549 0.630938 0
-0.000177 0.654389 0
0.001137 0.657292 0
0.002372 0.643100 0
0.003488 0.615666 0
0.004461 0.578628 0
0.005279 0.535049 0
0.005938 0.487403 0
0.006445 0.437622 0
0.006808 0.387193 0
0.007041 0.337253 0
0.007162 0.288689 0
0.007192 0.242190 0
0.007159 0.198276 0
0.007098 0.157276 0
0.007046 0.119250 0
0.007047 0.083869 0
0.007131 0.050304 0
0.007290 0.017344 0
0.007455 -0.016124 0
0.007554 -0.050838 0
0.007578 -0.087353 0
0.007536 -0.126104 0
0.007422 -0.167282 0
0.007217 -0.210787 0
0.006899 -0.256271 0
0.006450 -0.303203 0
0.005854 -0.350923 0
0.005103 -0.398666 0
0.004195 -0.445579 0
0.003135 -0.490739 0
0.001935 -0.533164 0
0.000615 -0.571850 0
-0.000821 -0.605688 0
-0.002278 -0.630844 0
-0.002962 -0.593635 0
0.000000 0.000047 0
0.000000 0.000047 0
0.002248 -0.566419 0
0.000808 -0.576093 0
-0.001304 -0.514846 0
-0.003243 -0.434729 0
-0.004941 -0.337989 0
-0.006308 -0.225629 0
-0.007266 -0.100174 0
-0.007761 0.033833 0
-0.007769 0.170011 0
-0.007217 0.300268 0
-0.006204 0.416188 0
-0.004859 0.511478 0
-0.003312 0.582775 0
-0.001680 0.629445 0
-0.000059 0.652931 0
0.001492 0.655910 0
0.002945 0.641827 0
0.004256 0.614536 0
0.005396 0.577661 0
0.006353 0.534252 0
0.007123 0.486774 0
0.007712 0.437155 0
0.008133 0.386873 0
0.008400 0.337066 0
0.008533 0.288612 0
0.008560 0.242196 0
0.008510 0.198333 0
0.008422 0.157345 0
0.008342 0.119289 0
0.008315 0.083838 0
0.008376 0.050191 0
0.008518 0.017188 0
0.008674 -0.016255 0
0.008778 -0.050905 0
0.008819 -0.087353 0
0.008797 -0.126034 0
0.008698 -0.167128 0
0.008500 -0.210527 0
0.008177 -0.255881 0
0.007705 -0.302666 0
0.007069 -0.350226 0
0.006258 -0.397804 0
0.005270 -0.444554 0
0.004112 -0.489559 0
0.002795 -0.531846 0
0.001341 -0.570410 0
-0.000231 -0.604170 0
-0.001861 -0.629681 0
-0.002767 -0.594678 0
0.000000 0.000047 0
0.000000 0.000048 0
0.001929 -0.566665 0
0.000153 -0.574184 0
-0.002177 -0.512718 0
-0.004327 -0.432820 0
-0.006196 -0.336387 0
-0.007685 -0.224423 0
-0.008701 -0.099436 0
-0.009180 0.034059 0
-0.009090 0.169678 0
-0.008375 0.299395 0
-0.007140 0.414895 0
-0.005532 0.509903 0
-0.003702 0.581051 0
-0.001782 0.627685 0
0.000117 0.651217 0
0.001930 0.654288 0
0.003628 0.640335 0
0.005156 0.613215 0
0.006483 0.576532 0
0.007595 0.533323 0
0.008490 0.486043 0
0.009174 0.436612 0
0.009660 0.386505 0
0.009967 0.336853 0
0.010118 0.288529 0
0.010142 0.242214 0
0.010074 0.198413 0
0.009959 0.157444 0
0.009846 0.119358 0
0.009789 0.083835 0
0.009824 0.050100 0
0.009946 0.017046 0
0.010092 -0.016383 0
0.010203 -0.050983 0
0.010262 -0.087372 0
0.010262 -0.125983 0
0.010180 -0.166986 0
0.009989 -0.210266 0
0.009657 -0.255476 0
0.009159 -0.302095 0
0.008475 -0.349476 0
0.007594 -0.396867 0
0.006515 -0.443433 0
0.005241 -0.488264 0
0.003789 -0.530394 0
0.002180 -0.568824 0
0.000444 -0.602486 0
-0.001379 -0.628308 0
-0.002538 -0.595497 0
0.000000 0.000047 0
0.000000 0.000048 0
0.001580 -0.566572 0
-0.000547 -0.571987 0
-0.003127 -0.510365 0
-0.005506 -0.430710 0
-0.007561 -0.334632 0
-0.009178 -0.223125 0
-0.010254 -0.098679 0
-0.010710 0.034223 0
-0.010509 0.169206 0
-0.009609 0.298318 0
-0.008127 0.413346 0
-0.006229 0.508040 0
-0.004084 0.579025 0
-0.001846 0.625627 0
0.000358 0.649218 0
0.002465 0.652399 0
0.004433 0.638601 0
0.006202 0.611681 0
0.007739 0.575221 0
0.009025 0.532245 0
0.010061 0.485196 0
0.010852 0.435984 0
0.011415 0.386080 0
0.011770 0.336608 0
0.011943 0.288438 0
0.011968 0.242240 0
0.011883 0.198516 0
0.011740 0.157573 0
0.011593 0.119459 0
0.011502 0.083861 0
0.011507 0.050034 0
0.011607 0.016920 0
0.011744 -0.016511 0
0.011862 -0.051075 0
0.011941 -0.087411 0
0.011963 -0.125952 0
0.011899 -0.166856 0
0.011712 -0.210004 0
0.011368 -0.255050 0
0.010836 -0.301483 0
0.010095 -0.348662 0
0.009132 -0.395844 0
0.007945 -0.442201 0
0.006540 -0.486834 0
0.004930 -0.528785 0
0.003142 -0.567064 0
0.001209 -0.600611 0
-0.000827 -0.626700 0
-0.002273 -0.596057 0
0.000000 0.000047 0
0.000000 0.000048 0
0.001201 -0.566118 0
-0.001290 -0.569477 0
-0.004154 -0.507759 0
-0.006779 -0.428386 0
-0.009033 -0.332714 0
-0.010787 -0.221731 0
-0.011923 -0.097904 0
-0.012349 0.034314 0
-0.012023 0.168578 0
-0.010918 0.297013 0
-0.009163 0.411515 0
-0.006944 0.505860 0
-0.004454 0.576668 0
-0.001865 0.623242 0
0.000676 0.646906 0
0.003106 0.650214 0
0.005374 0.636598 0
0.007412 0.609909 0
0.009181 0.573709 0
0.010664 0.531001 0
0.011858 0.484216 0
0.012773 0.435258 0
0.013425 0.385587 0
0.013838 0.336325 0
0.014041 0.288332 0
0.014070 0.242274 0
0.013972 0.198641 0
0.013801 0.157734 0
0.013620 0.119596 0
0.013492 0.083921 0
0.013465 0.049995 0
0.013541 0.016810 0
0.013667 -0.016638 0
0.013794 -0.051180 0
0.013893 -0.087472 0
0.013937 -0.125941 0
0.013887 -0.166735 0
0.013701 -0.209735 0
0.013338 -0.254599 0
0.012764 -0.300822 0
0.011955 -0.347772 0
0.010896 -0.394718 0
0.009584 -0.440840 0
0.008025 -0.485249 0
0.006235 -0.526996 0
0.004240 -0.565103 0
0.002078 -0.598517 0
-0.000200 -0.624826 0
-0.001969 -0.596324 0
0.000000 0.000047 0
0.000000 0.000048 0
0.000794 -0.565281 0
-0.002083 -0.566632 0
-0.005254 -0.504876 0
-0.008145 -0.425831 0
-0.010612 -0.330624 0
-0.012510 -0.220236 0
-0.013707 -0.097117 0
-0.014097 0.034323 0
-0.013632 0.167775 0
-0.012300 0.295457 0
-0.010245 0.409373 0
-0.007675 0.503331 0
-0.004806 0.573946 0
-0.001833 0.620497 0
0.001077 0.644247 0
0.003864 0.647701 0
0.006464 0.634296 0
0.008800 0.607873 0
0.010829 0.571969 0
0.012532 0.529568 0
0.013906 0.483087 0
0.014962 0.434417 0
0.015719 0.385015 0
0.016202 0.335993 0
0.016444 0.288205 0
0.016486 0.242309 0
0.016379 0.198785 0
0.016183 0.157925 0
0.015968 0.119768 0
0.015803 0.084015 0
0.015743 0.049985 0
0.015792 0.016718 0
0.015908 -0.016764 0
0.016042 -0.051300 0
0.016160 -0.087554 0
0.016223 -0.125947 0
0.016185 -0.166621 0
0.015995 -0.209455 0
0.015605 -0.254113 0
0.014977 -0.300100 0
0.014085 -0.346794 0