# vtk DataFile Version 2.0
generated by CFD-lab course output (written by Tobias Neckel) 
ASCII

DATASET STRUCTURED_GRID
DIMENSIONS  101 21 1 
POINTS 2121 float

0.000000 0.000000 0
0.100000 0.000000 0
0.200000 0.000000 0
0.300000 0.000000 0
0.400000 0.000000 0
0.500000 0.000000 0
0.600000 0.000000 0
0.700000 0.000000 0
0.800000 0.000000 0
0.900000 0.000000 0
1.000000 0.000000 0
1.100000 0.000000 0
1.200000 0.000000 0
1.300000 0.000000 0
1.400000 0.000000 0
1.500000 0.000000 0
1.600000 0.000000 0
1.700000 0.000000 0
1.800000 0.000000 0
1.900000 0.000000 0
2.000000 0.000000 0
2.100000 0.000000 0
2.200000 0.000000 0
2.300000 0.000000 0
2.400000 0.000000 0
2.500000 0.000000 0
2.600000 0.000000 0
2.700000 0.000000 0
2.800000 0.000000 0
2.900000 0.000000 0
3.000000 0.000000 0
3.100000 0.000000 0
3.200000 0.000000 0
3.300000 0.000000 0
3.400000 0.000000 0
3.500000 0.000000 0
3.600000 0.000000 0
3.700000 0.000000 0
3.800000 0.000000 0
3.900000 0.000000 0
4.000000 0.000000 0
4.100000 0.000000 0
4.200000 0.000000 0
4.300000 0.000000 0
4.400000 0.000000 0
4.500000 0.000000 0
4.600000 0.000000 0
4.700000 0.000000 0
4.800000 0.000000 0
4.900000 0.000000 0
5.000000 0.000000 0
5.100000 0.000000 0
5.200000 0.000000 0
5.300000 0.000000 0
5.400000 0.000000 0
5.500000 0.000000 0
5.600000 0.000000 0
5.700000 0.000000 0
5.800000 0.000000 0
5.900000 0.000000 0
6.000000 0.000000 0
6.100000 0.000000 0
6.200000 0.000000 0
6.300000 0.000000 0
6.400000 0.000000 0
6.500000 0.000000 0
6.600000 0.000000 0
6.700000 0.000000 0
6.800000 0.000000 0
6.900000 0.000000 0
7.000000 0.000000 0
7.100000 0.000000 0
7.200000 0.000000 0
7.300000 0.000000 0
7.400000 0.000000 0
7.500000 0.000000 0
7.600000 0.000000 0
7.700000 0.000000 0
7.800000 0.000000 0
7.900000 0.000000 0
8.000000 0.000000 0
8.100000 0.000000 0
8.200000 0.000000 0
8.300000 0.000000 0
8.400000 0.000000 0
8.500000 0.000000 0
8.600000 0.000000 0
8.700000 0.000000 0
8.800000 0.000000 0
8.900000 0.000000 0
9.000000 0.000000 0
9.100000 0.000000 0
9.200000 0.000000 0
9.300000 0.000000 0
9.400000 0.000000 0
9.500000 0.000000 0
9.600000 0.000000 0
9.700000 0.000000 0
9.800000 0.000000 0
9.900000 0.000000 0
10.000000 0.000000 0
0.000000 0.100000 0
0.100000 0.100000 0
0.200000 0.100000 0
0.300000 0.100000 0
0.400000 0.100000 0
0.500000 0.100000 0
0.600000 0.100000 0
0.700000 0.100000 0
0.800000 0.100000 0
0.900000 0.100000 0
1.000000 0.100000 0
1.100000 0.100000 0
1.200000 0.100000 0
1.300000 0.100000 0
1.400000 0.100000 0
1.500000 0.100000 0
1.600000 0.100000 0
1.700000 0.100000 0
1.800000 0.100000 0
1.900000 0.100000 0
2.000000 0.100000 0
2.100000 0.100000 0
2.200000 0.100000 0
2.300000 0.100000 0
2.400000 0.100000 0
2.500000 0.100000 0
2.600000 0.100000 0
2.700000 0.100000 0
2.800000 0.100000 0
2.900000 0.100000 0
3.000000 0.100000 0
3.100000 0.100000 0
3.200000 0.100000 0
3.300000 0.100000 0
3.400000 0.100000 0
3.500000 0.100000 0
3.600000 0.100000 0
3.700000 0.100000 0
3.800000 0.100000 0
3.900000 0.100000 0
4.000000 0.100000 0
4.100000 0.100000 0
4.200000 0.100000 0
4.300000 0.100000 0
4.400000 0.100000 0
4.500000 0.100000 0
4.600000 0.100000 0
4.700000 0.100000 0
4.800000 0.100000 0
4.900000 0.100000 0
5.000000 0.100000 0
5.100000 0.100000 0
5.200000 0.100000 0
5.300000 0.100000 0
5.400000 0.100000 0
5.500000 0.100000 0
5.600000 0.100000 0
5.700000 0.100000 0
5.800000 0.100000 0
5.900000 0.100000 0
6.000000 0.100000 0
6.100000 0.100000 0
6.200000 0.100000 0
6.300000 0.100000 0
6.400000 0.100000 0
6.500000 0.100000 0
6.600000 0.100000 0
6.700000 0.100000 0
6.800000 0.100000 0
6.900000 0.100000 0
7.000000 0.100000 0
7.100000 0.100000 0
7.200000 0.100000 0
7.300000 0.100000 0
7.400000 0.100000 0
7.500000 0.100000 0
7.600000 0.100000 0
7.700000 0.100000 0
7.800000 0.100000 0
7.900000 0.100000 0
8.000000 0.100000 0
8.100000 0.100000 0
8.200000 0.100000 0
8.300000 0.100000 0
8.400000 0.100000 0
8.500000 0.100000 0
8.600000 0.100000 0
8.700000 0.100000 0
8.800000 0.100000 0
8.900000 0.100000 0
9.000000 0.100000 0
9.100000 0.100000 0
9.200000 0.100000 0
9.300000 0.100000 0
9.400000 0.100000 0
9.500000 0.100000 0
9.600000 0.100000 0
9.700000 0.100000 0
9.800000 0.100000 0
9.900000 0.100000 0
10.000000 0.100000 0
0.000000 0.200000 0
0.100000 0.200000 0
0.200000 0.200000 0
0.300000 0.200000 0
0.400000 0.200000 0
0.500000 0.200000 0
0.600000 0.200000 0
0.700000 0.200000 0
0.800000 0.200000 0
0.900000 0.200000 0
1.000000 0.200000 0
1.100000 0.200000 0
1.200000 0.200000 0
1.300000 0.200000 0
1.400000 0.200000 0
1.500000 0.200000 0
1.600000 0.200000 0
1.700000 0.200000 0
1.800000 0.200000 0
1.900000 0.200000 0
2.000000 0.200000 0
2.100000 0.200000 0
2.200000 0.200000 0
2.300000 0.200000 0
2.400000 0.200000 0
2.500000 0.200000 0
2.600000 0.200000 0
2.700000 0.200000 0
2.800000 0.200000 0
2.900000 0.200000 0
3.000000 0.200000 0
3.100000 0.200000 0
3.200000 0.200000 0
3.300000 0.200000 0
3.400000 0.200000 0
3.500000 0.200000 0
3.600000 0.200000 0
3.700000 0.200000 0
3.800000 0.200000 0
3.900000 0.200000 0
4.000000 0.200000 0
4.100000 0.200000 0
4.200000 0.200000 0
4.300000 0.200000 0
4.400000 0.200000 0
4.500000 0.200000 0
4.600000 0.200000 0
4.700000 0.200000 0
4.800000 0.200000 0
4.900000 0.200000 0
5.000000 0.200000 0
5.100000 0.200000 0
5.200000 0.200000 0
5.300000 0.200000 0
5.400000 0.200000 0
5.500000 0.200000 0
5.600000 0.200000 0
5.700000 0.200000 0
5.800000 0.200000 0
5.900000 0.200000 0
6.000000 0.200000 0
6.100000 0.200000 0
6.200000 0.200000 0
6.300000 0.200000 0
6.400000 0.200000 0
6.500000 0.200000 0
6.600000 0.200000 0
6.700000 0.200000 0
6.800000 0.200000 0
6.900000 0.200000 0
7.000000 0.200000 0
7.100000 0.200000 0
7.200000 0.200000 0
7.300000 0.200000 0
7.400000 0.200000 0
7.500000 0.200000 0
7.600000 0.200000 0
7.700000 0.200000 0
7.800000 0.200000 0
7.900000 0.200000 0
8.000000 0.200000 0
8.100000 0.200000 0
8.200000 0.200000 0
8.300000 0.200000 0
8.400000 0.200000 0
8.500000 0.200000 0
8.600000 0.200000 0
8.700000 0.200000 0
8.800000 0.200000 0
8.900000 0.200000 0
9.000000 0.200000 0
9.100000 0.200000 0
9.200000 0.200000 0
9.300000 0.200000 0
9.400000 0.200000 0
9.500000 0.200000 0
9.600000 0.200000 0
9.700000 0.200000 0
9.800000 0.200000 0
9.900000 0.200000 0
10.000000 0.200000 0
0.000000 0.300000 0
0.100000 0.300000 0
0.200000 0.300000 0
0.300000 0.300000 0
0.400000 0.300000 0
0.500000 0.300000 0
0.600000 0.300000 0
0.700000 0.300000 0
0.800000 0.300000 0
0.900000 0.300000 0
1.000000 0.300000 0
1.100000 0.300000 0
1.200000 0.300000 0
1.300000 0.300000 0
1.400000 0.300000 0
1.500000 0.300000 0
1.600000 0.300000 0
1.700000 0.300000 0
1.800000 0.300000 0
1.900000 0.300000 0
2.000000 0.300000 0
2.100000 0.300000 0
2.200000 0.300000 0
2.300000 0.300000 0
2.400000 0.300000 0
2.500000 0.300000 0
2.600000 0.300000 0
2.700000 0.300000 0
2.800000 0.300000 0
2.900000 0.300000 0
3.000000 0.300000 0
3.100000 0.300000 0
3.200000 0.300000 0
3.300000 0.300000 0
3.400000 0.300000 0
3.500000 0.300000 0
3.600000 0.300000 0
3.700000 0.300000 0
3.800000 0.300000 0
3.900000 0.300000 0
4.000000 0.300000 0
4.100000 0.300000 0
4.200000 0.300000 0
4.300000 0.300000 0
4.400000 0.300000 0
4.500000 0.300000 0
4.600000 0.300000 0
4.700000 0.300000 0
4.800000 0.300000 0
4.900000 0.300000 0
5.000000 0.300000 0
5.100000 0.300000 0
5.200000 0.300000 0
5.300000 0.300000 0
5.400000 0.300000 0
5.500000 0.300000 0
5.600000 0.300000 0
5.700000 0.300000 0
5.800000 0.300000 0
5.900000 0.300000 0
6.000000 0.300000 0
6.100000 0.300000 0
6.200000 0.300000 0
6.300000 0.300000 0
6.400000 0.300000 0
6.500000 0.300000 0
6.600000 0.300000 0
6.700000 0.300000 0
6.800000 0.300000 0
6.900000 0.300000 0
7.000000 0.300000 0
7.100000 0.300000 0
7.200000 0.300000 0
7.300000 0.300000 0
7.400000 0.300000 0
7.500000 0.300000 0
7.600000 0.300000 0
7.700000 0.300000 0
7.800000 0.300000 0
7.900000 0.300000 0
8.000000 0.300000 0
8.100000 0.300000 0
8.200000 0.300000 0
8.300000 0.300000 0
8.400000 0.300000 0
8.500000 0.300000 0
8.600000 0.300000 0
8.700000 0.300000 0
8.800000 0.300000 0
8.900000 0.300000 0
9.000000 0.300000 0
9.100000 0.300000 0
9.200000 0.300000 0
9.300000 0.300000 0
9.400000 0.300000 0
9.500000 0.300000 0
9.600000 0.300000 0
9.700000 0.300000 0
9.800000 0.300000 0
9.900000 0.300000 0
10.000000 0.300000 0
0.000000 0.400000 0
0.100000 0.400000 0
0.200000 0.400000 0
0.300000 0.400000 0
0.400000 0.400000 0
0.500000 0.400000 0
0.600000 0.400000 0
0.700000 0.400000 0
0.800000 0.400000 0
0.900000 0.400000 0
1.000000 0.400000 0
1.100000 0.400000 0
1.200000 0.400000 0
1.300000 0.400000 0
1.400000 0.400000 0
1.500000 0.400000 0
1.600000 0.400000 0
1.700000 0.400000 0
1.800000 0.400000 0
1.900000 0.400000 0
2.000000 0.400000 0
2.100000 0.400000 0
2.200000 0.400000 0
2.300000 0.400000 0
2.400000 0.400000 0
2.500000 0.400000 0
2.600000 0.400000 0
2.700000 0.400000 0
2.800000 0.400000 0
2.900000 0.400000 0
3.000000 0.400000 0
3.100000 0.400000 0
3.200000 0.400000 0
3.300000 0.400000 0
3.400000 0.400000 0
3.500000 0.400000 0
3.600000 0.400000 0
3.700000 0.400000 0
3.800000 0.400000 0
3.900000 0.400000 0
4.000000 0.400000 0
4.100000 0.400000 0
4.200000 0.400000 0
4.300000 0.400000 0
4.400000 0.400000 0
4.500000 0.400000 0
4.600000 0.400000 0
4.700000 0.400000 0
4.800000 0.400000 0
4.900000 0.400000 0
5.000000 0.400000 0
5.100000 0.400000 0
5.200000 0.400000 0
5.300000 0.400000 0
5.400000 0.400000 0
5.500000 0.400000 0
5.600000 0.400000 0
5.700000 0.400000 0
5.800000 0.400000 0
5.900000 0.400000 0
6.000000 0.400000 0
6.100000 0.400000 0
6.200000 0.400000 0
6.300000 0.400000 0
6.400000 0.400000 0
6.500000 0.400000 0
6.600000 0.400000 0
6.700000 0.400000 0
6.800000 0.400000 0
6.900000 0.400000 0
7.000000 0.400000 0
7.100000 0.400000 0
7.200000 0.400000 0
7.300000 0.400000 0
7.400000 0.400000 0
7.500000 0.400000 0
7.600000 0.400000 0
7.700000 0.400000 0
7.800000 0.400000 0
7.900000 0.400000 0
8.000000 0.400000 0
8.100000 0.400000 0
8.200000 0.400000 0
8.300000 0.400000 0
8.400000 0.400000 0
8.500000 0.400000 0
8.600000 0.400000 0
[...]
POINT_DATA 2121 

VECTORS velocity float
0.000000 0.000000 0
0.000000 0.000000 0
0.000000 0.000000 0
0.000000 0.000000 0
0.000000 0.000000 0
0.000000 0.000000 0
0.000000 0.000000 0
0.000000 0.000000 0
0.000000 0.000000 0
0.000000 0.000000 0
0.000000 0.000000 0
-0.000003 0.000000 0
0.000013 0.000000 0
0.000010 0.000000 0
-0.000003 0.000000 0
-0.000008 0.000000 0
-0.000002 0.000000 0
0.000005 0.000000 0
0.000004 0.000000 0
-0.000000 0.000000 0
-0.000002 0.000000 0
-0.000000 0.000000 0
0.000002 0.000000 0
0.000001 0.000000 0
-0.000000 0.000000 0
-0.000001 0.000000 0
0.000000 0.000000 0
0.000001 0.000000 0
0.000000 0.000000 0
-0.000000 0.000000 0
-0.000000 0.000000 0
0.000000 0.000000 0
0.000000 0.000000 0
-0.000000 0.000000 0
-0.000000 0.000000 0
-0.000000 0.000000 0
0.000000 0.000000 0
0.000000 0.000000 0
-0.000000 0.000000 0
-0.000000 0.000000 0
-0.000000 0.000000 0
0.000000 0.000000 0
0.000000 0.000000 0
-0.000000 0.000000 0
-0.000000 0.000000 0
0.000000 0.000000 0
0.000000 0.000000 0
0.000000 0.000000 0
-0.000000 0.000000 0
-0.000000 0.000000 0
0.000000 0.000000 0
0.000000 0.000000 0
0.000000 0.000000 0
-0.000000 0.000000 0
-0.000000 0.000000 0
0.000000 0.000000 0
0.000000 0.000000 0
0.000000 0.000000 0
0.000000 0.000000 0
0.000000 0.000000 0
0.000000 0.000000 0
0.000000 0.000000 0
0.000000 0.000000 0
0.000000 0.000000 0
0.000000 0.000000 0
0.000000 0.000000 0
0.000000 0.000000 0
0.000000 0.000000 0
0.000000 0.000000 0
0.000000 0.000000 0
0.000000 0.000000 0
0.000000 0.000000 0
0.000000 0.000000 0
0.000000 0.000000 0
0.000000 0.000000 0
0.000000 0.000000 0
0.000000 0.000000 0
0.000000 0.000000 0
0.000000 0.000000 0
0.000000 0.000000 0
0.000000 0.000000 0
0.000000 0.000000 0
0.000000 0.000000 0
0.000000 0.000000 0
0.000000 0.000000 0
0.000000 0.000000 0
0.000000 0.000000 0
0.000000 0.000000 0
0.000000 0.000000 0
0.000000 0.000000 0
0.000000 0.000000 0
0.000000 0.000000 0
0.000000 0.000000 0
0.000000 0.000000 0
0.000000 0.000000 0
0.000000 0.000000 0
0.000000 0.000000 0
0.000000 0.000000 0
0.000000 0.000000 0
0.000000 0.000000 0
0.000000 0.000000 0
0.000000 0.000000 0
0.000000 0.000000 0
0.000000 0.000000 0
0.000000 0.000000 0
0.000000 0.000000 0
0.000000 0.000000 0
0.000000 0.000000 0
0.000000 0.000000 0
0.000000 0.000000 0
0.000000 0.000000 0
0.000000 -0.364905 0
-0.284005 -0.357951 0
-0.208305 0.016068 0
-0.159427 0.000396 0
-0.105181 -0.023922 0
-0.052599 -0.029089 0
-0.008954 -0.022978 0
0.022260 -0.013627 0
0.040292 -0.005918 0
0.048782 -0.000876 0
0.050916 0.002034 0
0.049078 0.003519 0
0.044978 0.004111 0
0.039757 0.004164 0
0.034173 0.003908 0
0.028717 0.003493 0
0.023682 0.003015 0
0.019218 0.002535 0
0.015382 0.002087 0
0.012161 0.001691 0
0.009508 0.001352 0
0.007355 0.001070 0
0.005628 0.000839 0
0.004259 0.000653 0
0.003182 0.000504 0
0.002342 0.000387 0
0.001692 0.000294 0
0.001194 0.000222 0
0.000815 0.000165 0
0.000532 0.000121 0
0.000322 0.000087 0
0.000169 0.000061 0
0.000061 0.000042 0
-0.000013 0.000027 0
-0.000062 0.000016 0
-0.000092 0.000008 0
-0.000107 0.000002 0
-0.000113 -0.000002 0
-0.000112 -0.000004 0
-0.000106 -0.000006 0
-0.000098 -0.000007 0
-0.000088 -0.000007 0
-0.000077 -0.000007 0
-0.000067 -0.000006 0
-0.000057 -0.000006 0
-0.000048 -0.000005 0
-0.000040 -0.000004 0
-0.000033 -0.000004 0
-0.000026 -0.000003 0
-0.000021 -0.000003 0
-0.000017 -0.000002 0
-0.000013 -0.000002 0
-0.000010 -0.000001 0
-0.000007 -0.000001 0
-0.000006 -0.000001 0
-0.000004 -0.000001 0
-0.000003 -0.000001 0
-0.000002 -0.000000 0
-0.000001 -0.000000 0
-0.000001 -0.000000 0
-0.000000 -0.000000 0
-0.000000 -0.000000 0
0.000000 -0.000000 0
0.000000 -0.000000 0
0.000000 -0.000000 0
0.000000 -0.000000 0
0.000000 0.000000 0
0.000000 0.000000 0
0.000000 0.000000 0
0.000000 0.000000 0
0.000000 0.000000 0
0.000000 0.000000 0
0.000000 0.000000 0
0.000000 0.000000 0
0.000000 0.000000 0
0.000000 0.000000 0
0.000000 0.000000 0
0.000000 0.000000 0
0.000000 0.000000 0
0.000000 0.000000 0
0.000000 0.000000 0
0.000000 0.000000 0
0.000000 0.000000 0
0.000000 0.000000 0
0.000000 0.000000 0
0.000000 0.000000 0
0.000000 0.000000 0
0.000000 -0.000000 0
0.000000 -0.000000 0
0.000000 -0.000000 0
0.000000 -0.000000 0
0.000000 0.000000 0
0.000000 0.000000 0
0.000000 0.000000 0
0.000000 0.000000 0
0.000000 0.000000 0
0.000000 0.000000 0
0.000000 0.000000 0
0.000000 0.000000 0
0.000000 0.000000 0
0.000000 0.000000 0
0.000000 -0.438686 0
-0.582414 -0.514375 0
-0.429525 -0.124573 0
-0.300191 -0.103140 0
-0.195294 -0.106839 0
-0.110760 -0.096218 0
-0.044366 -0.074844 0
0.005539 -0.049241 0
0.038869 -0.026528 0
0.057915 -0.010627 0
0.067027 -0.000292 0
0.069151 0.005942 0
0.066662 0.009321 0
0.061375 0.010803 0
0.054596 0.011039 0
0.047256 0.010493 0
0.039990 0.009499 0
0.033204 0.008300 0
0.027123 0.007057 0
0.021843 0.005874 0
0.017367 0.004807 0
0.013645 0.003879 0
0.010600 0.003096 0
0.008139 0.002447 0
0.006174 0.001917 0
0.004619 0.001490 0
0.003400 0.001148 0
0.002454 0.000877 0
0.001726 0.000662 0
0.001173 0.000494 0
0.000758 0.000363 0
0.000452 0.000261 0
0.000230 0.000183 0
0.000073 0.000123 0
-0.000034 0.000078 0
-0.000103 0.000045 0
-0.000144 0.000021 0
-0.000165 0.000004 0
-0.000172 -0.000007 0
-0.000168 -0.000014 0
-0.000159 -0.000018 0
-0.000145 -0.000020 0
-0.000130 -0.000021 0
-0.000114 -0.000020 0
-0.000098 -0.000019 0
-0.000083 -0.000017 0
-0.000070 -0.000015 0
-0.000058 -0.000013 0
-0.000047 -0.000011 0
-0.000038 -0.000010 0
-0.000030 -0.000008 0
-0.000024 -0.000007 0
-0.000019 -0.000005 0
-0.000014 -0.000004 0
-0.000011 -0.000003 0
-0.000008 -0.000003 0
-0.000006 -0.000002 0
-0.000004 -0.000002 0
-0.000003 -0.000001 0
-0.000002 -0.000001 0
-0.000001 -0.000001 0
-0.000000 -0.000000 0
-0.000000 -0.000000 0
0.000000 -0.000000 0
0.000000 -0.000000 0
0.000000 -0.000000 0
0.000000 0.000000 0
0.000000 0.000000 0
0.000000 0.000000 0
0.000000 0.000000 0
0.000000 0.000000 0
0.000000 0.000000 0
0.000000 0.000000 0
0.000000 0.000000 0
0.000000 0.000000 0
0.000000 0.000000 0
0.000000 0.000000 0
0.000000 0.000000 0
0.000000 0.000000 0
0.000000 0.000000 0
0.000000 0.000000 0
0.000000 0.000000 0
0.000000 0.000000 0
0.000000 0.000000 0
0.000000 0.000000 0
0.000000 0.000000 0
0.000000 0.000000 0
0.000000 0.000000 0
0.000000 0.000000 0
0.000000 0.000000 0
0.000000 0.000000 0
0.000000 0.000000 0
0.000000 0.000000 0
0.000000 0.000000 0
0.000000 0.000000 0
0.000000 0.000000 0
0.000000 0.000000 0
0.000000 0.000000 0
0.000000 0.000000 0
0.000000 0.000000 0
0.000000 0.000000 0
0.000000 -0.453301 0
-0.643679 -0.599256 0
-0.513136 -0.266198 0
-0.371347 -0.233863 0
-0.249937 -0.213348 0
-0.153137 -0.180001 0
-0.078267 -0.139274 0
-0.021589 -0.096873 0
0.020101 -0.058303 0
0.046556 -0.029032 0
0.062020 -0.009196 0
0.069276 0.003885 0
0.070491 0.011884 0
0.067651 0.016229 0
0.062270 0.018030 0
0.055500 0.018101 0
0.048193 0.017067 0
0.040947 0.015400 0
0.034150 0.013448 0
0.028023 0.011448 0
0.022666 0.009549 0
0.018092 0.007836 0
0.014263 0.006344 0
0.011108 0.005078 0
0.008544 0.004025 0
0.006484 0.003160 0
0.004847 0.002459 0
0.003559 0.001895 0
0.002558 0.001446 0
0.001787 0.001089 0
0.001202 0.000809 0
0.000764 0.000590 0
0.000441 0.000420 0
0.000209 0.000290 0
0.000047 0.000192 0
-0.000062 0.000118 0
-0.000132 0.000064 0
-0.000172 0.000026 0
-0.000190 -0.000001 0
-0.000194 -0.000019 0
-0.000188 -0.000030 0
-0.000176 -0.000036 0
-0.000160 -0.000038 0
-0.000142 -0.000038 0
-0.000124 -0.000036 0
-0.000106 -0.000033 0
-0.000090 -0.000030 0
-0.000075 -0.000027 0
-0.000062 -0.000023 0
-0.000050 -0.000020 0
-0.000040 -0.000017 0
-0.000032 -0.000014 0
-0.000025 -0.000011 0
-0.000019 -0.000009 0
-0.000015 -0.000007 0
-0.000011 -0.000006 0
-0.000008 -0.000004 0
-0.000006 -0.000003 0
-0.000004 -0.000003 0
-0.000003 -0.000002 0
-0.000002 -0.000001 0
-0.000001 -0.000001 0
-0.000000 -0.000001 0
0.000000 -0.000000 0
0.000000 -0.000000 0
0.000000 -0.000000 0
0.000001 -0.000000 0
0.000001 0.000000 0
0.000001 0.000000 0
0.000000 0.000000 0
0.000000 0.000000 0
0.000000 0.000000 0
0.000000 0.000000 0
0.000000 0.000000 0
0.000000 0.000000 0
0.000000 0.000000 0
0.000000 0.000000 0
0.000000 0.000000 0
0.000000 0.000000 0
0.000000 0.000000 0
0.000000 0.000000 0
0.000000 0.000000 0
0.000000 0.000000 0
0.000000 0.000000 0
0.000000 0.000000 0
0.000000 0.000000 0
0.000000 0.000000 0
0.000000 0.000000 0
0.000000 0.000000 0
0.000000 0.000000 0
0.000000 0.000000 0
0.000000 0.000000 0
0.000000 0.000000 0
0.000000 0.000000 0
0.000000 0.000000 0
0.000000 0.000000 0
0.000000 0.000000 0
0.000000 0.000000 0
0.000000 0.000000 0
0.000000 0.000000 0
0.000000 0.000000 0
0.000000 -0.448336 0
-0.651930 -0.654594 0
-0.534352 -0.396943 0
-0.394275 -0.366345 0
-0.270908 -0.325032 0
-0.172851 -0.267881 0
-0.097992 -0.206403 0
-0.041854 -0.147624 0
0.000220 -0.094675 0
0.029580 -0.052539 0
0.048211 -0.023009 0
0.058876 -0.002533 0
0.063385 0.010942 0
0.063372 0.019025 0
0.060272 0.023193 0
0.055238 0.024570 0
0.049165 0.024051 0
0.042717 0.022342 0
0.036362 0.019982 0
0.030404 0.017359 0
0.025020 0.014737 0
0.020292 0.012282 0
0.016236 0.010080 0
0.012822 0.008166 0
0.009994 0.006542 0
0.007685 0.005187 0
0.005822 0.004072 0
0.004338 0.003165 0
0.003170 0.002434 0
0.002260 0.001850 0
0.001561 0.001386 0
0.001032 0.001021 0
0.000637 0.000737 0
0.000349 0.000517 0
0.000144 0.000350 0
0.000002 0.000224 0
-0.000092 0.000131 0
-0.000149 0.000063 0
-0.000180 0.000016 0
-0.000193 -0.000016 0
-0.000192 -0.000037 0
-0.000183 -0.000049 0
-0.000169 -0.000055 0
-0.000152 -0.000056 0
-0.000134 -0.000055 0
-0.000116 -0.000051 0
-0.000099 -0.000047 0
-0.000083 -0.000041 0
-0.000069 -0.000036 0
-0.000056 -0.000031 0
-0.000046 -0.000026 0
-0.000036 -0.000022 0
-0.000029 -0.000018 0
-0.000022 -0.000015 0
-0.000017 -0.000012 0
-0.000013 -0.000009 0
-0.000009 -0.000007 0
-0.000007 -0.000006 0
-0.000005 -0.000004 0
-0.000003 -0.000003 0
-0.000002 -0.000002 0
-0.000001 -0.000002 0
-0.000001 -0.000001 0
-0.000000 -0.000001 0
0.000000 -0.000000 0
0.000000 -0.000000 0
0.000000 -0.000000 0
0.000001 0.000000 0
0.000001 0.000000 0
0.000001 0.000000 0
0.000000 0.000000 0
0.000000 0.000000 0
0.000000 0.000000 0
0.000000 0.000000 0
0.000000 0.000000 0
0.000000 0.000000 0
0.000000 0.000000 0
0.000000 0.000000 0
0.000000 0.000000 0
0.000000 0.000000 0
0.000000 0.000000 0
0.000000 0.000000 0
0.000000 0.000000 0
0.000000 0.000000 0
0.000000 0.000000 0
0.000000 0.000000 0
0.000000 0.000000 0
0.000000 0.000000 0
0.000000 0.000000 0
0.000000 0.000000 0
0.000000 0.000000 0
0.000000 0.000000 0
0.000000 0.000000 0
0.000000 0.000000 0
0.000000 0.000000 0
0.000000 0.000000 0
0.000000 0.000000 0
0.000000 0.000000 0
0.000000 0.000000 0
0.000000 0.000000 0
0.000000 0.000000 0
0.000000 -0.429298 0
-0.636268 -0.692848 0
-0.519589 -0.523866 0
-0.380471 -0.497290 0
-0.260971 -0.434755 0
-0.168520 -0.352922 0
-0.099668 -0.270289 0
-0.049098 -0.195093 0
-0.012007 -0.129730 0
0.015418 -0.077015 0
0.033665 -0.038494 0
0.045060 -0.011294 0
0.051172 0.007387 0
0.053123 0.019344 0
0.052065 0.026166 0
0.048970 0.029207 0
0.044618 0.029586 0
0.039613 0.028203 0
0.034404 0.025763 0
0.029309 0.022791 0
0.024541 0.019661 0
0.020227 0.016620 0
0.016428 0.013815 0
0.013156 0.011321 0
0.010390 0.009162 0
0.008090 0.007332 0
0.006206 0.005805 0
0.004683 0.004548 0
0.003469 0.003524 0
0.002513 0.002698 0
0.001771 0.002037 0
0.001202 0.001514 0
0.000774 0.001103 0
0.000457 0.000784 0
0.000228 0.000539 0
0.000067 0.000354 0
-0.000042 0.000215 0
-0.000112 0.000114 0
-0.000153 0.000043 0
-0.000173 -0.000007 0
-0.000178 -0.000039 0
-0.000173 -0.000059 0
-0.000162 -0.000069 0
-0.000148 -0.000073 0
-0.000131 -0.000072 0
-0.000115 -0.000069 0
-0.000098 -0.000063 0
-0.000083 -0.000057 0
-0.000069 -0.000050 0
-0.000057 -0.000043 0
-0.000046 -0.000036 0
-0.000037 -0.000031 0
-0.000030 -0.000025 0
-0.000023 -0.000021 0
-0.000018 -0.000017 0
-0.000014 -0.000013 0
-0.000010 -0.000010 0
-0.000007 -0.000008 0
-0.000005 -0.000006 0
-0.000004 -0.000005 0
-0.000002 -0.000003 0
-0.000001 -0.000002 0
-0.000001 -0.000002 0
-0.000000 -0.000001 0
0.000000 -0.000001 0
0.000000 -0.000000 0
0.000000 -0.000000 0
0.000000 -0.000000 0
0.000000 0.000000 0
0.000000 0.000000 0
0.000000 0.000000 0
0.000000 0.000000 0
0.000000 0.000000 0
0.000000 0.000000 0
0.000000 0.000000 0
0.000000 0.000000 0
0.000000 0.000000 0
0.000000 0.000000 0
0.000000 0.000000 0
0.000000 0.000000 0
0.000000 0.000000 0
0.000000 0.000000 0
0.000000 0.000000 0
0.000000 0.000000 0
0.000000 0.000000 0
0.000000 0.000000 0
0.000000 0.000000 0
0.000000 0.000000 0
0.000000 0.000000 0
0.000000 0.000000 0
0.000000 0.000000 0
0.000000 0.000000 0
0.000000 0.000000 0
0.000000 0.000000 0
0.000000 0.000000 0
0.000000 0.000000 0
0.000000 0.000000 0
0.000000 0.000000 0
0.000000 0.000000 0
0.000000 0.000000 0
0.000000 0.000000 0
0.000000 -0.399995 0
-0.591414 -0.722935 0
-0.465944 -0.652729 0
-0.329205 -0.624936 0
-0.220201 -0.536973 0
-0.140466 -0.429196 0
-0.083492 -0.325840 0
-0.042950 -0.235284 0
-0.014040 -0.159180 0
0.007306 -0.098208 0
0.022176 -0.052657 0
0.031861 -0.020045 0
0.037614 0.002881 0
0.040244 0.018135 0
0.040496 0.027346 0
0.039028 0.032015 0
0.036388 0.033407 0
0.033020 0.032558 0
0.029275 0.030287 0
0.025428 0.027221 0
0.021680 0.023818 0
0.018172 0.020394 0
0.014990 0.017151 0
0.012177 0.014205 0
0.009745 0.011607 0
0.007683 0.009370 0
0.005964 0.007479 0
0.004554 0.005902 0
0.003414 0.004605 0
0.002506 0.003548 0
0.001793 0.002697 0
0.001241 0.002018 0
0.000822 0.001482 0
0.000508 0.001063 0
0.000279 0.000740 0
0.000116 0.000494 0
0.000003 0.000309 0
-0.000071 0.000174 0
-0.000116 0.000076 0
-0.000141 0.000009 0
-0.000150 -0.000036 0
-0.000150 -0.000065 0
-0.000142 -0.000080 0
-0.000131 -0.000087 0
-0.000118 -0.000088 0
-0.000103 -0.000084 0
-0.000089 -0.000078 0
-0.000076 -0.000070 0
-0.000064 -0.000062 0
-0.000053 -0.000054 0
-0.000043 -0.000046 0
-0.000035 -0.000039 0
-0.000028 -0.000032 0
-0.000022 -0.000026 0
-0.000017 -0.000021 0
-0.000013 -0.000017 0
-0.000010 -0.000014 0
-0.000007 -0.000011 0
-0.000005 -0.000008 0
-0.000004 -0.000006 0
-0.000002 -0.000005 0
-0.000001 -0.000003 0
-0.000001 -0.000002 0
-0.000000 -0.000002 0
-0.000000 -0.000001 0
0.000000 -0.000001 0
0.000000 -0.000000 0
0.000000 -0.000000 0
0.000000 0.000000 0
0.000000 0.000000 0
0.000000 0.000000 0
0.000000 0.000000 0
0.000000 0.000000 0
0.000000 0.000000 0
0.000000 0.000000 0
0.000000 0.000000 0
0.000000 0.000000 0
0.000000 0.000000 0
0.000000 0.000000 0
0.000000 0.000000 0
0.000000 0.000000 0
0.000000 0.000000 0
0.000000 0.000000 0
0.000000 0.000000 0
0.000000 0.000000 0
0.000000 0.000000 0
0.000000 0.000000 0
0.000000 0.000000 0
0.000000 0.000000 0
0.000000 0.000000 0
0.000000 0.000000 0
0.000000 0.000000 0
0.000000 0.000000 0
0.000000 0.000000 0
0.000000 0.000000 0
0.000000 0.000000 0
0.000000 0.000000 0
0.000000 0.000000 0
0.000000 0.000000 0
0.000000 0.000000 0
0.000000 0.000000 0
0.000000 -0.367764 0
-0.500232 -0.756775 0
-0.359770 -0.786050 0
-0.235062 -0.743011 0
-0.148218 -0.623496 0
-0.090531 -0.489646 0
-0.051919 -0.367812 0
-0.025638 -0.264537 0
-0.007637 -0.179977 0
0.005329 -0.113233 0
0.014585 -0.063056 0
0.020680 -0.026734 0
0.024535 -0.000992 0
0.026717 0.016465 0
0.027519 0.027380 0
0.027214 0.033313 0
0.026049 0.035595 0
0.024252 0.035317 0
0.022032 0.033355 0
0.019576 0.030385 0
0.017045 0.026916 0
0.014564 0.023310 0
0.012226 0.019810 0
0.010090 0.016565 0
0.008192 0.013656 0
0.006543 0.011113 0
0.005141 0.008934 0
0.003971 0.007098 0
0.003010 0.005572 0
0.002235 0.004319 0
0.001620 0.003302 0
0.001139 0.002485 0
0.000770 0.001836 0
0.000492 0.001327 0
0.000286 0.000932 0
0.000138 0.000630 0
0.000035 0.000402 0
-0.000035 0.000234 0
-0.000079 0.000112 0
-0.000104 0.000027 0
-0.000115 -0.000030 0
-0.000117 -0.000067 0
-0.000113 -0.000088 0
-0.000105 -0.000098 0
-0.000095 -0.000100 0
-0.000084 -0.000097 0
-0.000073 -0.000091 0
-0.000062 -0.000082 0
-0.000053 -0.000073 0
-0.000044 -0.000064 0
-0.000036 -0.000054 0
-0.000029 -0.000046 0
-0.000023 -0.000038 0
-0.000018 -0.000031 0
-0.000014 -0.000026 0
-0.000011 -0.000020 0
-0.000008 -0.000016 0
-0.000006 -0.000013 0
-0.000004 -0.000010 0
-0.000003 -0.000007 0
-0.000002 -0.000005 0
-0.000001 -0.000004 0
-0.000001 -0.000003 0
-0.000000 -0.000002 0
-0.000000 -0.000001 0
0.000000 -0.000001 0
0.000000 -0.000000 0
0.000000 -0.000000 0
0.000000 0.000000 0
0.000000 0.000000 0
0.000000 0.000000 0
0.000000 0.000000 0
0.000000 0.000000 0
0.000000 0.000000 0
0.000000 0.000000 0
0.000000 0.000000 0
0.000000 0.000000 0
0.000000 0.000000 0
0.000000 0.000000 0
0.000000 0.000000 0
0.000000 0.000000 0
0.000000 0.000000 0
0.000000 0.000000 0
0.000000 0.000000 0
0.000000 0.000000 0
0.000000 0.000000 0
0.000000 0.000000 0
0.000000 0.000000 0
0.000000 0.000000 0
0.000000 0.000000 0
0.000000 0.000000 0
0.000000 0.000000 0
0.000000 0.000000 0
0.000000 0.000000 0
0.000000 0.000000 0
0.000000 0.000000 0
0.000000 0.000000 0
0.000000 0.000000 0
0.000000 0.000000 0
0.000000 0.000000 0
0.000000 0.000000 0
0.000000 -0.349878 0
-0.327300 -0.813267 0
-0.181810 -0.917874 0
-0.093649 -0.836478 0
-0.047732 -0.681515 0
-0.023640 -0.525508 0
-0.009852 -0.390732 0
-0.001357 -0.279556 0
0.003980 -0.190143 0
0.007483 -0.120435 0
0.009826 -0.068013 0
0.011285 -0.029994 0
0.012446 -0.003153 0
0.013500 0.015152 0
0.014322 0.026846 0
0.014780 0.033483 0
0.014807 0.036370 0
0.014401 0.036577 0
0.013615 0.034963 0
0.012538 0.032207 0
0.011266 0.028830 0
0.009897 0.025214 0
0.008511 0.021626 0
0.007174 0.018239 0
0.005933 0.015154 0
0.004816 0.012421 0
0.003839 0.010051 0
0.003003 0.008033 0
0.002304 0.006340 0
0.001731 0.004939 0
0.001269 0.003793 0
0.000905 0.002868 0
0.000622 0.002130 0
0.000407 0.001547 0
0.000247 0.001094 0
0.000131 0.000745 0
0.000049 0.000482 0
-0.000007 0.000287 0
-0.000043 0.000145 0
-0.000065 0.000045 0
-0.000076 -0.000023 0
-0.000079 -0.000067 0
-0.000078 -0.000092 0
-0.000073 -0.000105 0
-0.000067 -0.000109 0
-0.000059 -0.000106 0
-0.000052 -0.000100 0
-0.000044 -0.000091 0
-0.000037 -0.000081 0
-0.000031 -0.000071 0
-0.000026 -0.000061 0
-0.000021 -0.000051 0
-0.000017 -0.000043 0
-0.000013 -0.000035 0
-0.000010 -0.000029 0
-0.000008 -0.000023 0
-0.000006 -0.000018 0
-0.000004 -0.000014 0
-0.000003 -0.000011 0
-0.000002 -0.000008 0
-0.000002 -0.000006 0
-0.000001 -0.000005 0
-0.000001 -0.000003 0
-0.000000 -0.000002 0
-0.000000 -0.000001 0
0.000000 -0.000001 0
0.000000 -0.000000 0
0.000000 -0.000000 0
0.000000 0.000000 0
0.000000 0.000000 0
0.000000 0.000000 0
0.000000 0.000000 0
0.000000 0.000000 0
0.000000 0.000000 0
0.000000 0.000000 0
0.000000 0.000000 0
0.000000 0.000000 0
0.000000 0.000000 0
0.000000 0.000000 0
0.000000 0.000000 0
0.000000 0.000000 0
0.000000 0.000000 0
0.000000 0.000000 0
0.000000 0.000000 0
0.000000 0.000000 0
0.000000 0.000000 0
0.000000 0.000000 0
0.000000 0.000000 0
0.000000 0.000000 0
0.000000 0.000000 0
0.000000 0.000000 0
0.000000 0.000000 0
0.000000 0.000000 0
0.000000 0.000000 0
0.000000 0.000000 0
0.000000 0.000000 0
0.000000 0.000000 0
0.000000 0.000000 0
0.000000 0.000000 0
0.000000 0.000000 0
0.000000 0.000000 0
0.000000 -0.386833 0
-0.005748 -0.921323 0
0.084065 -1.019684 0
0.089868 -0.877090 0
0.070221 -0.693519 0
0.049888 -0.527532 0
0.034819 -0.390088 0
0.024222 -0.278361 0
0.016503 -0.188819 0
0.010502 -0.119086 0
0.005876 -0.066860 0
0.002665 -0.029351 0
0.001135 -0.003205 0
0.000940 0.014589 0
0.001571 0.026097 0
0.002544 0.032827 0
0.003518 0.035976 0
0.004294 0.036510 0
0.004786 0.035217 0
0.004982 0.032733 0
0.004916 0.029557 0
0.004645 0.026066 0
0.004232 0.022533 0
0.003736 0.019143 0
0.003207 0.016014 0
0.002684 0.013207 0
0.002194 0.010748 0
0.001753 0.008633 0
0.001370 0.006844 0
0.001046 0.005353 0
0.000780 0.004127 0
0.000565 0.003132 0
0.000397 0.002334 0
0.000267 0.001702 0
0.000169 0.001208 0
0.000098 0.000828 0
0.000046 0.000540 0
0.000011 0.000326 0
-0.000012 0.000170 0
-0.000027 0.000060 0
-0.000035 -0.000016 0
-0.000038 -0.000065 0
-0.000039 -0.000094 0
-0.000037 -0.000109 0
-0.000034 -0.000114 0
-0.000030 -0.000112 0