# vtk DataFile Version 2.0
generated by CFD-lab course output (written by Tobias Neckel) 
ASCII

DATASET STRUCTURED_GRID
DIMENSIONS  101 21 1 
POINTS 2121 float

0.000000 0.000000 0
0.100000 0.000000 0
0.200000 0.000000 0
0.300000 0.000000 0
0.400000 0.000000 0
0.500000 0.000000 0
0.600000 0.000000 0
0.700000 0.000000 0
0.800000 0.000000 0
0.900000 0.000000 0
1.000000 0.000000 0
1.100000 0.000000 0
1.200000 0.000000 0
1.300000 0.000000 0
1.400000 0.000000 0
1.500000 0.000000 0
1.600000 0.000000 0
1.700000 0.000000 0
1.800000 0.000000 0
1.900000 0.000000 0
2.000000 0.000000 0
2.100000 0.000000 0
2.200000 0.000000 0
2.300000 0.000000 0
2.400000 0.000000 0
2.500000 0.000000 0
2.600000 0.000000 0
2.700000 0.000000 0
2.800000 0.000000 0
2.900000 0.000000 0
3.000000 0.000000 0
3.100000 0.000000 0
3.200000 0.000000 0
3.300000 0.000000 0
3.400000 0.000000 0
3.500000 0.000000 0
3.600000 0.000000 0
3.700000 0.000000 0
3.800000 0.000000 0
3.900000 0.000000 0
4.000000 0.000000 0
4.100000 0.000000 0
4.200000 0.000000 0
4.300000 0.000000 0
4.400000 0.000000 0
4.500000 0.000000 0
4.600000 0.000000 0
4.700000 0.000000 0
4.800000 0.000000 0
4.900000 0.000000 0
5.000000 0.000000 0
5.100000 0.000000 0
5.200000 0.000000 0
5.300000 0.000000 0
5.400000 0.000000 0
5.500000 0.000000 0
5.600000 0.000000 0
5.700000 0.000000 0
5.800000 0.000000 0
5.900000 0.000000 0
6.000000 0.000000 0
6.100000 0.000000 0
6.200000 0.000000 0
6.300000 0.000000 0
6.400000 0.000000 0
6.500000 0.000000 0
6.600000 0.000000 0
6.700000 0.000000 0
6.800000 0.000000 0
6.900000 0.000000 0
7.000000 0.000000 0
7.100000 0.000000 0
7.200000 0.000000 0
7.300000 0.000000 0
7.400000 0.000000 0
7.500000 0.000000 0
7.600000 0.000000 0
7.700000 0.000000 0
7.800000 0.000000 0
7.900000 0.000000 0
8.000000 0.000000 0
8.100000 0.000000 0
8.200000 0.000000 0
8.300000 0.000000 0
8.400000 0.000000 0
8.500000 0.000000 0
8.600000 0.000000 0
8.700000 0.000000 0
8.800000 0.000000 0
8.900000 0.000000 0
9.000000 0.000000 0
9.100000 0.000000 0
9.200000 0.000000 0
9.300000 0.000000 0
9.400000 0.000000 0
9.500000 0.000000 0
9.600000 0.000000 0
9.700000 0.000000 0
9.800000 0.000000 0
9.900000 0.000000 0
10.000000 0.000000 0
0.000000 0.100000 0
0.100000 0.100000 0
0.200000 0.100000 0
0.300000 0.100000 0
0.400000 0.100000 0
0.500000 0.100000 0
0.600000 0.100000 0
0.700000 0.100000 0
0.800000 0.100000 0
0.900000 0.100000 0
1.000000 0.100000 0
1.100000 0.100000 0
1.200000 0.100000 0
1.300000 0.100000 0
1.400000 0.100000 0
1.500000 0.100000 0
1.600000 0.100000 0
1.700000 0.100000 0
1.800000 0.100000 0
1.900000 0.100000 0
2.000000 0.100000 0
2.100000 0.100000 0
2.200000 0.100000 0
2.300000 0.100000 0
2.400000 0.100000 0
2.500000 0.100000 0
2.600000 0.100000 0
2.700000 0.100000 0
2.800000 0.100000 0
2.900000 0.100000 0
3.000000 0.100000 0
3.100000 0.100000 0
3.200000 0.100000 0
3.300000 0.100000 0
3.400000 0.100000 0
3.500000 0.100000 0
3.600000 0.100000 0
3.700000 0.100000 0
3.800000 0.100000 0
3.900000 0.100000 0
4.000000 0.100000 0
4.100000 0.100000 0
4.200000 0.100000 0
4.300000 0.100000 0
4.400000 0.100000 0
4.500000 0.100000 0
4.600000 0.100000 0
4.700000 0.100000 0
4.800000 0.100000 0
4.900000 0.100000 0
5.000000 0.100000 0
5.100000 0.100000 0
5.200000 0.100000 0
5.300000 0.100000 0
5.400000 0.100000 0
5.500000 0.100000 0
5.600000 0.100000 0
5.700000 0.100000 0
5.800000 0.100000 0
5.900000 0.100000 0
6.000000 0.100000 0
6.100000 0.100000 0
6.200000 0.100000 0
6.300000 0.100000 0
6.400000 0.100000 0
6.500000 0.100000 0
6.600000 0.100000 0
6.700000 0.100000 0
6.800000 0.100000 0
6.900000 0.100000 0
7.000000 0.100000 0
7.100000 0.100000 0
7.200000 0.100000 0
7.300000 0.100000 0
7.400000 0.100000 0
7.500000 0.100000 0
7.600000 0.100000 0
7.700000 0.100000 0
7.800000 0.100000 0
7.900000 0.100000 0
8.000000 0.100000 0
8.100000 0.100000 0
8.200000 0.100000 0
8.300000 0.100000 0
8.400000 0.100000 0
8.500000 0.100000 0
8.600000 0.100000 0
8.700000 0.100000 0
8.800000 0.100000 0
8.900000 0.100000 0
9.000000 0.100000 0
9.100000 0.100000 0
9.200000 0.100000 0
9.300000 0.100000 0
9.400000 0.100000 0
9.500000 0.100000 0
9.600000 0.100000 0
9.700000 0.100000 0
9.800000 0.100000 0
9.900000 0.100000 0
10.000000 0.100000 0
0.000000 0.200000 0
0.100000 0.200000 0
0.200000 0.200000 0
0.300000 0.200000 0
0.400000 0.200000 0
0.500000 0.200000 0
0.600000 0.200000 0
0.700000 0.200000 0
0.800000 0.200000 0
0.900000 0.200000 0
1.000000 0.200000 0
1.100000 0.200000 0
1.200000 0.200000 0
1.300000 0.200000 0
1.400000 0.200000 0
1.500000 0.200000 0
1.600000 0.200000 0
1.700000 0.200000 0
1.800000 0.200000 0
1.900000 0.200000 0
2.000000 0.200000 0
2.100000 0.200000 0
2.200000 0.200000 0
2.300000 0.200000 0
2.400000 0.200000 0
2.500000 0.200000 0
2.600000 0.200000 0
2.700000 0.200000 0
2.800000 0.200000 0
2.900000 0.200000 0
3.000000 0.200000 0
3.100000 0.200000 0
3.200000 0.200000 0
3.300000 0.200000 0
3.400000 0.200000 0
3.500000 0.200000 0
3.600000 0.200000 0
3.700000 0.200000 0
3.800000 0.200000 0
3.900000 0.200000 0
4.000000 0.200000 0
4.100000 0.200000 0
4.200000 0.200000 0
4.300000 0.200000 0
4.400000 0.200000 0
4.500000 0.200000 0
4.600000 0.200000 0
4.700000 0.200000 0
4.800000 0.200000 0
4.900000 0.200000 0
5.000000 0.200000 0
5.100000 0.200000 0
5.200000 0.200000 0
5.300000 0.200000 0
5.400000 0.200000 0
5.500000 0.200000 0
5.600000 0.200000 0
5.700000 0.200000 0
5.800000 0.200000 0
5.900000 0.200000 0
6.000000 0.200000 0
6.100000 0.200000 0
6.200000 0.200000 0
6.300000 0.200000 0
6.400000 0.200000 0
6.500000 0.200000 0
6.600000 0.200000 0
6.700000 0.200000 0
6.800000 0.200000 0
6.900000 0.200000 0
7.000000 0.200000 0
7.100000 0.200000 0
7.200000 0.200000 0
7.300000 0.200000 0
7.400000 0.200000 0
7.500000 0.200000 0
7.600000 0.200000 0
7.700000 0.200000 0
7.800000 0.200000 0
7.900000 0.200000 0
8.000000 0.200000 0
8.100000 0.200000 0
8.200000 0.200000 0
8.300000 0.200000 0
8.400000 0.200000 0
8.500000 0.200000 0
8.600000 0.200000 0
8.700000 0.200000 0
8.800000 0.200000 0
8.900000 0.200000 0
9.000000 0.200000 0
9.100000 0.200000 0
9.200000 0.200000 0
9.300000 0.200000 0
9.400000 0.200000 0
9.500000 0.200000 0
9.600000 0.200000 0
9.700000 0.200000 0
9.800000 0.200000 0
9.900000 0.200000 0
10.000000 0.200000 0
0.000000 0.300000 0
0.100000 0.300000 0
0.200000 0.300000 0
0.300000 0.300000 0
0.400000 0.300000 0
0.500000 0.300000 0
0.600000 0.300000 0
0.700000 0.300000 0
0.800000 0.300000 0
0.900000 0.300000 0
1.000000 0.300000 0
1.100000 0.300000 0
1.200000 0.300000 0
1.300000 0.300000 0
1.400000 0.300000 0
1.500000 0.300000 0
1.600000 0.300000 0
1.700000 0.300000 0
1.800000 0.300000 0
1.900000 0.300000 0
2.000000 0.300000 0
2.100000 0.300000 0
2.200000 0.300000 0
2.300000 0.300000 0
2.400000 0.300000 0
2.500000 0.300000 0
2.600000 0.300000 0
2.700000 0.300000 0
2.800000 0.300000 0
2.900000 0.300000 0
3.000000 0.300000 0
3.100000 0.300000 0
3.200000 0.300000 0
3.300000 0.300000 0
3.400000 0.300000 0
3.500000 0.300000 0
3.600000 0.300000 0
3.700000 0.300000 0
3.800000 0.300000 0
3.900000 0.300000 0
4.000000 0.300000 0
4.100000 0.300000 0
4.200000 0.300000 0
4.300000 0.300000 0
4.400000 0.300000 0
4.500000 0.300000 0
4.600000 0.300000 0
4.700000 0.300000 0
4.800000 0.300000 0
4.900000 0.300000 0
5.000000 0.300000 0
5.100000 0.300000 0
5.200000 0.300000 0
5.300000 0.300000 0
5.400000 0.300000 0
5.500000 0.300000 0
5.600000 0.300000 0
5.700000 0.300000 0
5.800000 0.300000 0
5.900000 0.300000 0
6.000000 0.300000 0
6.100000 0.300000 0
6.200000 0.300000 0
6.300000 0.300000 0
6.400000 0.300000 0
6.500000 0.300000 0
6.600000 0.300000 0
6.700000 0.300000 0
6.800000 0.300000 0
6.900000 0.300000 0
7.000000 0.300000 0
7.100000 0.300000 0
7.200000 0.300000 0
7.300000 0.300000 0
7.400000 0.300000 0
7.500000 0.300000 0
7.600000 0.300000 0
7.700000 0.300000 0
7.800000 0.300000 0
7.900000 0.300000 0
8.000000 0.300000 0
8.100000 0.300000 0
8.200000 0.300000 0
8.300000 0.300000 0
8.400000 0.300000 0
8.500000 0.300000 0
8.600000 0.300000 0
8.700000 0.300000 0
8.800000 0.300000 0
8.900000 0.300000 0
9.000000 0.300000 0
9.100000 0.300000 0
9.200000 0.300000 0
9.300000 0.300000 0
9.400000 0.300000 0
9.500000 0.300000 0
9.600000 0.300000 0
9.700000 0.300000 0
9.800000 0.300000 0
9.900000 0.300000 0
10.000000 0.300000 0
0.000000 0.400000 0
0.100000 0.400000 0
0.200000 0.400000 0
0.300000 0.400000 0
0.400000 0.400000 0
0.500000 0.400000 0
0.600000 0.400000 0
0.700000 0.400000 0
0.800000 0.400000 0
0.900000 0.400000 0
1.000000 0.400000 0
1.100000 0.400000 0
1.200000 0.400000 0
1.300000 0.400000 0
1.400000 0.400000 0
1.500000 0.400000 0
1.600000 0.400000 0
1.700000 0.400000 0
1.800000 0.400000 0
1.900000 0.400000 0
2.000000 0.400000 0
2.100000 0.400000 0
2.200000 0.400000 0
2.300000 0.400000 0
2.400000 0.400000 0
2.500000 0.400000 0
2.600000 0.400000 0
2.700000 0.400000 0
2.800000 0.400000 0
2.900000 0.400000 0
3.000000 0.400000 0
3.100000 0.400000 0
3.200000 0.400000 0
3.300000 0.400000 0
3.400000 0.400000 0
3.500000 0.400000 0
3.600000 0.400000 0
3.700000 0.400000 0
3.800000 0.400000 0
3.900000 0.400000 0
4.000000 0.400000 0
4.100000 0.400000 0
4.200000 0.400000 0
4.300000 0.400000 0
4.400000 0.400000 0
4.500000 0.400000 0
4.600000 0.400000 0
4.700000 0.400000 0
4.800000 0.400000 0
4.900000 0.400000 0
5.000000 0.400000 0
5.100000 0.400000 0
5.200000 0.400000 0
5.300000 0.400000 0
5.400000 0.400000 0
5.500000 0.400000 0
5.600000 0.400000 0
5.700000 0.400000 0
5.800000 0.400000 0
5.900000 0.400000 0
6.000000 0.400000 0
6.100000 0.400000 0
6.200000 0.400000 0
6.300000 0.400000 0
6.400000 0.400000 0
6.500000 0.400000 0
6.600000 0.400000 0
6.700000 0.400000 0
6.800000 0.400000 0
6.900000 0.400000 0
7.000000 0.400000 0
7.100000 0.400000 0
7.200000 0.400000 0
7.300000 0.400000 0
7.400000 0.400000 0
7.500000 0.400000 0
7.600000 0.400000 0
7.700000 0.400000 0
7.800000 0.400000 0
7.900000 0.400000 0
8.000000 0.400000 0
8.100000 0.400000 0
8.200000 0.400000 0
8.300000 0.400000 0
8.400000 0.400000 0
8.500000 0.400000 0
8.600000 0.400000 0
[...]
POINT_DATA 2121 

VECTORS velocity float
0.000000 0.000000 0
0.000000 0.000000 0
0.000000 0.000000 0
0.000000 0.000000 0
0.000000 0.000000 0
0.000000 0.000000 0
0.000000 0.000000 0
0.000000 0.000000 0
0.000000 0.000000 0
0.000000 0.000000 0
0.000000 0.000000 0
-0.000000 0.000000 0
-0.000000 0.000000 0
-0.000000 0.000000 0
-0.000000 0.000000 0
-0.000000 0.000000 0
-0.000000 0.000000 0
-0.000000 0.000000 0
-0.000000 0.000000 0
-0.000000 0.000000 0
0.000000 0.000000 0
0.000000 0.000000 0
0.000000 0.000000 0
0.000000 0.000000 0
0.000000 0.000000 0
0.000000 0.000000 0
0.000000 0.000000 0
0.000000 0.000000 0
0.000000 0.000000 0
0.000000 0.000000 0
0.000000 0.000000 0
0.000000 0.000000 0
0.000000 0.000000 0
0.000000 0.000000 0
0.000000 0.000000 0
0.000000 0.000000 0
0.000000 0.000000 0
0.000000 0.000000 0
0.000000 0.000000 0
0.000000 0.000000 0
0.000000 0.000000 0
0.000000 0.000000 0
0.000000 0.000000 0
0.000000 0.000000 0
0.000000 0.000000 0
0.000000 0.000000 0
0.000000 0.000000 0
0.000000 0.000000 0
0.000000 0.000000 0
0.000000 0.000000 0
0.000000 0.000000 0
0.000000 0.000000 0
0.000000 0.000000 0
0.000000 0.000000 0
0.000001 0.000000 0
0.000001 0.000000 0
0.000001 0.000000 0
0.000001 0.000000 0
0.000001 0.000000 0
0.000001 0.000000 0
0.000000 0.000000 0
0.000000 0.000000 0
-0.000000 0.000000 0
-0.000000 0.000000 0
-0.000000 0.000000 0
-0.000000 0.000000 0
-0.000000 0.000000 0
-0.000000 0.000000 0
0.000000 0.000000 0
0.000001 0.000000 0
0.000001 0.000000 0
0.000001 0.000000 0
0.000001 0.000000 0
0.000001 0.000000 0
0.000001 0.000000 0
0.000001 0.000000 0
0.000001 0.000000 0
0.000001 0.000000 0
0.000000 0.000000 0
-0.000000 0.000000 0
-0.000000 0.000000 0
-0.000001 0.000000 0
-0.000001 0.000000 0
-0.000001 0.000000 0
-0.000001 0.000000 0
-0.000001 0.000000 0
-0.000002 0.000000 0
-0.000002 0.000000 0
-0.000002 0.000000 0
-0.000002 0.000000 0
-0.000002 0.000000 0
-0.000001 0.000000 0
-0.000001 0.000000 0
-0.000001 0.000000 0
-0.000001 0.000000 0
-0.000000 0.000000 0
-0.000000 0.000000 0
-0.000000 0.000000 0
0.000000 0.000000 0
0.000000 0.000000 0
0.000000 0.000000 0
0.000000 0.000000 0
0.000000 0.000000 0
0.000000 0.000000 0
0.000000 0.000000 0
0.000000 0.000000 0
0.000000 0.000000 0
0.000000 0.000000 0
0.000000 0.000000 0
0.000000 0.000000 0
0.000000 -0.073084 0
0.000000 0.000000 0
-0.467248 0.259554 0
-0.966843 0.407464 0
-1.494402 0.444975 0
-2.011486 0.433491 0
-2.489749 0.392350 0
-2.907346 0.330024 0
-3.247545 0.252333 0
-3.498212 0.164236 0
-3.651776 0.070075 0
-3.705612 -0.027791 0
-3.663112 -0.123799 0
-3.538730 -0.209707 0
-3.344547 -0.282700 0
-3.091066 -0.343445 0
-2.788192 -0.392407 0
-2.446295 -0.429614 0
-2.076177 -0.455354 0
-1.688474 -0.470985 0
-1.290627 -0.477251 0
-0.892313 -0.477282 0
-0.495700 -0.471325 0
-0.103012 -0.468451 0
0.266536 -0.457739 0
0.611585 -0.425349 0
0.930626 -0.390514 0
1.224612 -0.361602 0
1.494903 -0.336065 0
1.742700 -0.312389 0
1.968963 -0.289798 0
2.174373 -0.267766 0
2.359275 -0.245790 0
2.523576 -0.223297 0
2.666649 -0.199635 0
2.787256 -0.174094 0
2.883519 -0.145982 0
2.952971 -0.114734 0
2.992706 -0.080131 0
2.999668 -0.042739 0
2.971080 -0.005075 0
2.904953 0.031745 0
2.799766 0.068787 0
2.654458 0.105987 0
2.468706 0.142513 0
2.243224 0.177101 0
1.980049 0.208144 0
1.682829 0.233769 0
1.357098 0.252411 0
1.010599 0.265503 0
0.654794 0.255866 0
0.312645 0.180008 0
0.014111 0.003593 0
-0.241285 -0.109618 0
-0.449167 -0.121773 0
-0.482556 -0.193668 0
-0.395610 -0.261034 0
-0.284922 -0.254779 0
-0.219262 -0.187298 0
-0.268569 -0.056366 0
-0.433648 0.090511 0
-0.688720 0.192419 0
-1.002839 0.245381 0
-1.346005 0.268287 0
-1.692595 0.267253 0
-2.021131 0.246327 0
-2.314171 0.209455 0
-2.558219 0.160486 0
-2.743525 0.102961 0
-2.863787 0.039712 0
-2.915734 -0.028310 0
-2.898832 -0.098862 0
-2.817896 -0.165992 0
-2.679949 -0.225060 0
-2.493381 -0.274621 0
-2.267043 -0.314455 0
-2.009736 -0.344803 0
-1.730036 -0.365989 0
-1.436368 -0.378224 0
-1.137154 -0.381523 0
-0.841061 -0.375676 0
-0.557318 -0.360293 0
-0.295693 -0.333510 0
-0.068833 -0.284121 0
0.104699 -0.215040 0
0.211494 -0.148226 0
0.258673 -0.090464 0
0.248865 -0.042829 0
0.189415 -0.011900 0
0.095202 -0.003435 0
0.000000 0.000000 0
0.000000 0.005555 0
0.000000 0.000000 0
0.000000 0.000000 0
0.000000 0.000000 0
0.000000 0.000000 0
0.000000 0.000000 0
0.000000 0.000000 0
0.000000 0.000000 0
0.000000 0.000000 0
0.000000 0.000000 0
0.000000 -0.348854 0
0.000000 0.000000 0
-0.606111 0.793950 0
-1.116035 0.918156 0
-1.595136 0.935645 0
-2.037180 0.886349 0
-2.427497 0.786862 0
-2.751634 0.648799 0
-2.997514 0.481868 0
-3.155974 0.295233 0
-3.221238 0.098403 0
-3.192653 -0.097662 0
-3.085416 -0.275880 0
-2.915614 -0.427564 0
-2.692070 -0.556662 0
-2.421425 -0.665353 0
-2.110326 -0.753769 0
-1.766935 -0.821013 0
-1.400263 -0.866819 0
-1.020869 -0.894548 0
-0.633789 -0.905158 0
-0.244211 -0.903926 0
0.131508 -0.898299 0
0.492832 -0.871234 0
0.824582 -0.823595 0
1.138579 -0.773088 0
1.439177 -0.722025 0
1.722485 -0.673275 0
1.987014 -0.627086 0
2.232645 -0.583058 0
2.459791 -0.540671 0
2.668982 -0.499310 0
2.860632 -0.458201 0
3.034860 -0.416372 0
3.191370 -0.372678 0
3.329349 -0.325868 0
3.447426 -0.274713 0
3.543696 -0.218184 0
3.615799 -0.155695 0
3.661007 -0.087372 0
3.676109 -0.014283 0
3.656400 0.062316 0
3.599227 0.141497 0
3.502848 0.222061 0
3.366250 0.302236 0
3.189242 0.379659 0
2.972620 0.451397 0
2.718380 0.513954 0
2.430071 0.563232 0
2.113854 0.593305 0
1.782366 0.588956 0
1.435275 0.531686 0
1.049502 0.444932 0
0.581207 0.354280 0
0.171913 0.132273 0
-0.164204 -0.162555 0
-0.460166 -0.306632 0
-0.502188 -0.285346 0
-0.573660 -0.125352 0
-0.728319 0.105388 0
-0.941897 0.311154 0
-1.199229 0.460193 0
-1.493226 0.548286 0
-1.801744 0.580758 0
-2.102939 0.566128 0
-2.378403 0.512577 0
-2.613499 0.428090 0
-2.797231 0.320357 0
-2.921988 0.196570 0
-2.983380 0.063210 0
-2.980368 -0.073952 0
-2.916602 -0.206836 0
-2.799357 -0.327881 0
-2.635524 -0.433513 0
-2.432537 -0.521904 0
-2.198010 -0.592643 0
-1.939452 -0.646005 0
-1.664237 -0.682365 0
-1.379767 -0.701880 0
-1.093601 -0.704305 0
-0.813703 -0.688834 0
-0.549006 -0.654367 0
-0.308558 -0.597483 0
-0.103422 -0.509389 0
0.062227 -0.389325 0
0.178627 -0.262972 0
0.241372 -0.146369 0
0.248136 -0.039740 0
0.197861 0.044665 0
0.100595 0.080417 0
0.000000 -0.000000 0
0.000000 -0.081407 0
0.000000 0.000000 0
0.000000 0.000000 0
0.000000 0.000000 0
0.000000 0.000000 0
0.000000 0.000000 0
0.000000 0.000000 0
0.000000 0.000000 0
0.000000 0.000000 0
0.000000 0.000000 0
0.000000 -0.592748 0
0.000000 0.000000 0
-0.484151 1.266590 0
-0.892400 1.351387 0
-1.255381 1.321019 0
-1.573284 1.220750 0
-1.841715 1.061701 0
-2.054480 0.854938 0
-2.205410 0.611571 0
-2.288362 0.342858 0
-2.296549 0.061651 0
-2.223026 -0.208715 0
-2.098091 -0.445941 0
-1.926772 -0.648156 0
-1.713647 -0.821992 0
-1.462311 -0.970291 0
-1.177852 -1.091999 0
-0.867288 -1.184779 0
-0.537014 -1.246523 0
-0.196769 -1.282562 0
0.140370 -1.299012 0
0.472305 -1.287681 0
0.788909 -1.253471 0
1.083877 -1.206628 0
1.369698 -1.148589 0
1.643456 -1.085046 0
1.904376 -1.019522 0
2.150814 -0.954542 0
2.381792 -0.891328 0
2.597123 -0.830268 0
2.797129 -0.771238 0
2.982363 -0.713710 0
3.153375 -0.656770 0
3.310510 -0.599138 0
3.453738 -0.539226 0
3.582513 -0.475253 0
3.695689 -0.405431 0
3.791495 -0.328209 0
3.867584 -0.242545 0
3.921132 -0.148152 0
3.948939 -0.045570 0
3.947510 0.063525 0
3.914591 0.177237 0
3.848610 0.293862 0
3.748632 0.411016 0
3.614357 0.525628 0
3.446115 0.633903 0
3.244911 0.731215 0
3.012558 0.811834 0
2.751905 0.868105 0
2.465978 0.889343 0
2.150339 0.867769 0
1.795108 0.812557 0
1.418798 0.722869 0
1.039931 0.578536 0
0.554648 0.393308 0
0.044297 0.031847 0
-0.373978 -0.186387 0
-0.613840 -0.006270 0
-0.790011 0.266769 0
-0.998959 0.516319 0
-1.239624 0.698645 0
-1.497242 0.802793 0
-1.756522 0.832897 0
-2.002465 0.798810 0
-2.222188 0.711785 0
-2.405426 0.583181 0
-2.544323 0.423872 0
-2.633131 0.244007 0
-2.668266 0.052990 0
-2.648880 -0.140190 0
-2.577767 -0.324976 0
-2.459907 -0.492174 0
-2.302323 -0.636983 0
-2.112442 -0.757237 0
-1.897378 -0.852642 0
-1.663796 -0.923679 0
-1.418099 -0.970776 0
-1.166806 -0.993962 0
-0.916639 -0.992690 0
-0.674629 -0.965374 0
-0.449164 -0.910541 0
-0.247730 -0.824196 0
-0.079375 -0.700008 0
0.054045 -0.542191 0
0.153605 -0.372473 0
0.208235 -0.205076 0
0.214551 -0.044421 0
0.170128 0.090538 0
0.084074 0.149323 0
0.000000 -0.000000 0
0.000000 -0.150534 0
0.000000 0.000000 0
0.000000 0.000000 0
0.000000 0.000000 0
0.000000 0.000000 0
0.000000 0.000000 0
0.000000 0.000000 0
0.000000 0.000000 0
0.000000 0.000000 0
0.000000 0.000000 0
0.000000 -0.746559 0
0.000000 0.000000 0
-0.289900 1.577352 0
-0.539171 1.644282 0
-0.755525 1.571426 0
-0.935844 1.427581 0
-1.079882 1.222955 0
-1.186439 0.967391 0
-1.253371 0.670648 0
-1.276595 0.341270 0
-1.247452 -0.012037 0
-1.157330 -0.341223 0
-1.032729 -0.617237 0
-0.873599 -0.857110 0
-0.681378 -1.066225 0
-0.456752 -1.246250 0
-0.208062 -1.393894 0
0.057043 -1.506954 0
0.332034 -1.582441 0
0.611527 -1.617034 0
0.885327 -1.619335 0
1.147956 -1.597567 0
1.404524 -1.554974 0
1.650642 -1.497125 0
1.886889 -1.428277 0
2.112389 -1.352869 0
2.326401 -1.274485 0
2.528150 -1.195792 0
2.717206 -1.118498 0
2.893619 -1.043497 0
3.057861 -0.971014 0
3.210667 -0.900659 0
3.352839 -0.831450 0
3.485035 -0.761837 0
3.607555 -0.689784 0
3.720147 -0.612922 0
3.821862 -0.528797 0
3.910966 -0.435182 0
3.984959 -0.330435 0
4.040701 -0.213830 0
4.074649 -0.085764 0
4.083244 0.051562 0
4.063787 0.195294 0
4.014893 0.342918 0
3.936062 0.491387 0
3.827536 0.637073 0
3.690103 0.775740 0
3.524862 0.902408 0
3.332983 1.011136 0
3.115340 1.094782 0
2.871507 1.145419 0
2.597877 1.157453 0
2.291201 1.131370 0
1.959552 1.064355 0
1.601467 0.951321 0
1.206656 0.787976 0
0.787619 0.576891 0
0.187956 0.327689 0
-0.269488 0.245579 0
-0.549855 0.445404 0
-0.773725 0.715664 0
-1.002910 0.913374 0
-1.233113 1.020081 0
-1.456445 1.040879 0
-1.664395 0.986692 0
-1.849133 0.870435 0
-2.003838 0.705122 0
-2.122165 0.502959 0
-2.197963 0.275410 0
-2.225959 0.033857 0
-2.203656 -0.209554 0
-2.134162 -0.440912 0
-2.023603 -0.648428 0
-1.879908 -0.826080 0
-1.710524 -0.971951 0
-1.521933 -1.086392 0
-1.319820 -1.170387 0
-1.109474 -1.224458 0
-0.896448 -1.248442 0
-0.686584 -1.241585 0
-0.485740 -1.201412 0
-0.301524 -1.126368 0
-0.139923 -1.012375 0
-0.008209 -0.856267 0
0.094940 -0.667408 0
0.168846 -0.462265 0
0.204989 -0.252418 0
0.200762 -0.046736 0
0.154747 0.130040 0
0.074622 0.205442 0
0.000000 -0.000001 0
0.000000 -0.204452 0
0.000000 0.000000 0
0.000000 0.000000 0
0.000000 0.000000 0
0.000000 0.000000 0
0.000000 0.000000 0
0.000000 0.000000 0
0.000000 0.000000 0
0.000000 0.000000 0
0.000000 0.000000 0
0.000000 -0.796201 0
0.000000 0.000000 0
-0.091365 1.696764 0
-0.163508 1.771910 0
-0.222167 1.672589 0
-0.259559 1.500004 0
-0.276778 1.267193 0
-0.274954 0.983325 0
-0.253950 0.656625 0
-0.212680 0.291836 0
-0.142094 -0.102717 0
-0.058211 -0.468541 0
0.050599 -0.774775 0
0.186271 -1.044609 0
0.349603 -1.283941 0
0.536712 -1.488710 0
0.740004 -1.650897 0
0.952041 -1.769978 0
1.165287 -1.846109 0
1.376944 -1.880957 0
1.587194 -1.880544 0
1.791235 -1.851981 0
1.988285 -1.801259 0
2.177018 -1.734096 0
2.357061 -1.655439 0
2.527960 -1.569660 0
2.689266 -1.480385 0
2.840605 -1.390450 0
2.981869 -1.301899 0
3.113345 -1.216026 0
3.235733 -1.133388 0
3.350064 -1.053790 0
3.457523 -0.976241 0
3.559222 -0.898957 0
3.655944 -0.819441 0
3.747888 -0.734663 0
3.834444 -0.641352 0
3.914014 -0.536409 0
3.983964 -0.417382 0
4.040759 -0.282944 0
4.080286 -0.133216 0
4.098385 0.029284 0
4.090807 0.200485 0
4.055993 0.376484 0
3.993482 0.553271 0
3.903809 0.726485 0
3.788207 0.891474 0
3.648201 1.043232 0
3.485125 1.176254 0
3.299571 1.284479 0
3.090748 1.361703 0
2.856182 1.402973 0
2.593650 1.405780 0
2.304107 1.367500 0
1.984645 1.286330 0
1.631684 1.162054 0
1.236052 1.005444 0
0.788046 0.825617 0
0.278509 0.686439 0
-0.122860 0.725904 0
-0.389865 0.924271 0
-0.610594 1.112930 0
-0.816636 1.211225 0
-1.011295 1.219076 0
-1.190999 1.146395 0
-1.351386 1.006126 0
-1.488284 0.811111 0
-1.596257 0.572894 0
-1.668099 0.302698 0
-1.695952 0.013581 0
-1.675292 -0.277089 0
-1.611985 -0.550132 0
-1.514415 -0.791531 0
-1.391064 -0.995164 0
-1.248663 -1.160315 0
-1.092544 -1.288449 0
-0.927184 -1.381241 0
-0.756627 -1.439251 0
-0.585379 -1.461955 0
-0.418417 -1.448500 0
-0.260574 -1.395537 0
-0.118136 -1.301461 0
0.003266 -1.162613 0
0.100841 -0.979973 0
0.174397 -0.764349 0
0.220474 -0.527625 0
0.234081 -0.282094 0
0.213728 -0.039282 0
0.158975 0.171575 0
0.076020 0.258968 0
0.000000 -0.000001 0
0.000000 -0.254676 0
0.000000 0.000000 0
0.000000 0.000000 0
0.000000 0.000000 0
0.000000 0.000000 0
0.000000 0.000000 0
0.000000 0.000000 0
0.000000 0.000000 0
0.000000 0.000000 0
0.000000 0.000000 0
0.000000 -0.751477 0
0.000000 0.000000 0
0.078569 1.631863 0
0.181695 1.729982 0
0.279741 1.622374 0
0.382026 1.437089 0
0.486760 1.193247 0
0.591426 0.899461 0
0.695063 0.563271 0
0.794810 0.184311 0
0.897330 -0.211609 0
0.982113 -0.579018 0
1.078728 -0.906821 0
1.194722 -1.201216 0
1.330726 -1.461769 0
1.478941 -1.681754 0
1.634660 -1.854325 0
1.792447 -1.977340 0
1.947558 -2.052446 0
2.097886 -2.084043 0
2.243005 -2.078729 0
2.382002 -2.043760 0
2.514647 -1.985859 0
2.640685 -1.911004 0
2.759928 -1.824321 0
2.872071 -1.730177 0
2.976751 -1.632233 0
3.073687 -1.533498 0
3.162880 -1.436340 0
3.244764 -1.342464 0
3.320281 -1.252836 0
3.390842 -1.167552 0
3.458155 -1.085711 0
3.523967 -1.005361 0
3.589782 -0.923553 0
3.656544 -0.836525 0
3.724288 -0.740025 0
3.791780 -0.629805 0
3.856308 -0.502283 0
3.913789 -0.355254 0
3.959230 -0.188492 0
3.987444 -0.004062 0
3.992734 0.192583 0
3.972784 0.395139 0
3.926795 0.598469 0
3.855285 0.797246 0
3.759684 0.986245 0
3.641835 1.160388 0
3.503442 1.314663 0
3.345498 1.444056 0
3.167815 1.543706 0
2.968920 1.609449 0
2.746851 1.638343 0
2.500028 1.628257 0
2.225361 1.578641 0
1.919444 1.491467 0
1.576655 1.375427 0
1.198080 1.240130 0
0.779448 1.111382 0
0.372500 1.068675 0
0.070311 1.158295 0
-0.143211 1.295042 0
-0.323146 1.375681 0
-0.487318 1.370139 0
-0.637893 1.281680 0
-0.772090 1.122618 0
-0.888819 0.904891 0
-0.984554 0.637671 0
-1.052719 0.330003 0
-1.083339 -0.004052 0
-1.068998 -0.338623 0
-1.018567 -0.646892 0
-0.942436 -0.914451 0
-0.848022 -1.136936 0
-0.740307 -1.315574 0
-0.623086 -1.452973 0
-0.499631 -1.551407 0
-0.372926 -1.611365 0
-0.246437 -1.631754 0
-0.124101 -1.611493 0
-0.011002 -1.546796 0
0.089523 -1.435310 0
0.172405 -1.276454 0
0.237365 -1.072501 0
0.280679 -0.832143 0
0.298670 -0.567052 0
0.288123 -0.290774 0
0.248420 -0.016732 0
0.179159 0.222644 0
0.085692 0.319315 0
0.000000 -0.000001 0
0.000000 -0.311391 0
0.000000 0.000000 0
0.000000 0.000000 0
0.000000 0.000000 0
0.000000 0.000000 0
0.000000 0.000000 0
0.000000 0.000000 0
0.000000 0.000000 0
0.000000 0.000000 0
0.000000 0.000000 0
0.000000 -0.631185 0
0.000000 0.000000 0
0.206961 1.406071 0
0.469810 1.525635 0
0.715743 1.427155 0
0.945814 1.247882 0
1.157138 1.012690 0
1.346204 0.729919 0
1.512536 0.408138 0
1.659261 0.044467 0
1.781645 -0.335123 0
1.888318 -0.695041 0
1.997140 -1.032486 0
2.113668 -1.341710 0
2.234481 -1.613264 0
2.353012 -1.837747 0
2.464708 -2.009505 0
2.567225 -2.127979 0
2.660030 -2.196651 0
2.744068 -2.221507 0
2.820932 -2.209763 0
2.891931 -2.168725 0
2.958001 -2.105044 0
3.019546 -2.024479 0
3.076510 -1.931928 0
3.128481 -1.831586 0
3.174907 -1.727104 0
3.215343 -1.621682 0
3.249714 -1.518079 0
3.278499 -1.418529 0
3.302869 -1.324569 0
3.324712 -1.236767 0
3.346414 -1.154469 0
3.370612 -1.075686 0
3.399940 -0.997120 0
3.436689 -0.914272 0
3.482160 -0.821691 0
3.535843 -0.713531 0
3.594848 -0.584494 0
3.654051 -0.430969 0
3.706903 -0.251973 0
3.746545 -0.049323 0
3.766422 0.170042 0
3.762840 0.397320 0
3.734656 0.625668 0
3.682418 0.848494 0
3.607750 1.059821 0
3.512757 1.254371 0
3.399462 1.427488 0
3.269309 1.575003 0
3.122767 1.693179 0
2.959200 1.778834 0
2.777118 1.829569 0
2.574533 1.843887 0
2.348665 1.821812 0
2.096645 1.765658 0
1.815651 1.681705 0
1.507111 1.577722 0
1.172170 1.466916 0
0.830388 1.389937 0
0.541650 1.394880 0
0.338098 1.461284 0
0.187654 1.510230 0
0.062012 1.488721 0
-0.049929 1.386065 0
-0.149346 1.211948 0
-0.235960 0.978472 0
-0.308233 0.691692 0
-0.363270 0.356380 0
-0.395676 -0.015243 0
-0.394143 -0.386964 0
-0.367501 -0.721797 0
-0.324161 -1.007178 0
-0.268389 -1.242396 0
-0.203063 -1.430354 0
-0.130543 -1.574227 0
-0.053176 -1.676503 0
0.026437 -1.737548 0
0.105759 -1.755882 0
0.181878 -1.729038 0
0.250804 -1.654265 0
0.310583 -1.529971 0
0.357456 -1.355558 0
0.389326 -1.133350 0
0.402228 -0.870756 0
0.392316 -0.580172 0
0.357094 -0.276947 0
0.296280 0.024579 0
0.208374 0.289201 0
0.099329 0.393025 0
0.000000 -0.000001 0
0.000000 -0.380959 0
0.000000 0.000000 0
0.000000 0.000000 0
0.000000 0.000000 0
0.000000 0.000000 0
0.000000 0.000000 0
0.000000 0.000000 0
0.000000 0.000000 0
0.000000 0.000000 0
0.000000 0.000000 0
0.000000 -0.458070 0
0.000000 0.000000 0
0.279235 1.053055 0
0.685853 1.176096 0
1.066282 1.101267 0
1.405820 0.950592 0
1.702067 0.747755 0
1.951296 0.498960 0
2.163472 0.205112 0
2.361868 -0.129900 0
2.532976 -0.485768 0
2.688011 -0.839616 0
2.830097 -1.177274 0
2.956078 -1.483660 0
3.061400 -1.746216 0
3.143570 -1.957084 0
3.203306 -2.113640 0
3.243704 -2.217764 0
3.269012 -2.274392 0
3.283653 -2.290049 0
3.291457 -2.271696 0
3.295153 -2.225931 0
3.296280 -2.158576 0
3.295283 -2.074615 0
3.291780 -1.978359 0
3.284884 -1.873677 0
3.273574 -1.764198 0
3.257037 -1.653408 0
3.235008 -1.544599 0
3.207931 -1.440722 0
3.177168 -1.344150 0
3.145220 -1.256200 0
3.115358 -1.176714 0
3.091528 -1.103989 0
3.078428 -1.034732 0
3.081049 -0.963848 0
3.103087 -0.884282 0
3.144870 -0.787595 0
3.202373 -0.665594 0
3.267981 -0.512411 0
3.332352 -0.326090 0
3.386357 -0.108683 0
3.422655 0.131186 0
3.435877 0.381803 0
3.425254 0.633788 0
3.392004 0.879049 0
3.338399 1.110803 0
3.267022 1.323573 0
3.180215 1.513009 0
3.079703 1.675649 0
2.966340 1.808712 0
2.840008 1.909995 0
2.699704 1.977907 0
2.543734 2.011608 0
2.369873 2.011426 0
2.175940 1.979378 0
1.960413 1.919859 0
1.724367 1.838507 0
1.470166 1.743002 0
1.207395 1.654093 0
0.968212 1.605482 0
0.789678 1.603935 0
0.670775 1.606664 0
0.587211 1.562620 0
0.521172 1.447936 0
0.464740 1.263546 0
0.417566 1.018674 0
0.380098 0.719879 0
0.352189 0.372343 0
0.332066 -0.018281 0
0.317157 -0.411901 0
0.309609 -0.761977 0
0.310867 -1.058665 0
0.320962 -1.303136 0
0.338919 -1.498523 0
0.363363 -1.647962 0
0.392570 -1.753489 0
0.424291 -1.815403 0
0.456509 -1.832298 0
0.486952 -1.801641 0
0.513481 -1.720604 0
0.533668 -1.587064 0
0.544590 -1.400299 0
0.543330 -1.162376 0
0.526061 -0.880235 0
0.488824 -0.567021 0
0.429239 -0.239841 0
0.345592 0.086886 0
0.237578 0.374493 0
0.111824 0.482586 0
0.000000 -0.000001 0
0.000000 -0.464947 0
0.000000 0.000000 0
-2.410287 0.000000 0
-2.348908 0.000000 0
-2.287512 0.000000 0
-2.227499 0.000000 0
-2.169516 0.000000 0
-2.113949 0.000000 0
-2.061139 0.000000 0
-2.011553 0.000000 0
-1.966233 -0.265504 0
0.000000 -0.000000 0
0.382757 0.611219 0
0.918824 0.693485 0
1.404692 0.662086 0
1.823056 0.566995 0
2.180526 0.422112 0
2.503475 0.223411 0
2.803774 -0.047537 0
3.075282 -0.370139 0
3.307509 -0.706368 0
3.498391 -1.037265 0
3.644998 -1.345655 0
3.746376 -1.618116 0
3.804859 -1.845858 0
3.825852 -2.024756 0
3.816780 -2.154742 0
3.785734 -2.238787 0
3.740304 -2.281702 0
3.686781 -2.289055 0
3.629712 -2.266365 0
3.571787 -2.218650 0
3.514008 -2.150276 0
3.456030 -2.065082 0
3.396627 -1.966631 0
3.334141 -1.858483 0
3.266958 -1.744360 0
3.193834 -1.628219 0
3.114350 -1.514076 0
3.028843 -1.405791 0
2.938691 -1.306961 0
2.847285 -1.220060 0
2.759076 -1.145879 0
2.680374 -1.083859 0
2.620401 -1.031745 0
2.589665 -0.984033 0
2.594995 -0.930614 0
2.635352 -0.857920 0
2.702137 -0.752708 0
2.782761 -0.606051 0
2.864204 -0.415452 0