# vtk DataFile Version 2.0
generated by CFD-lab course output (written by Tobias Neckel) 
ASCII

DATASET STRUCTURED_GRID
DIMENSIONS  101 51 1 
POINTS 5151 float

0.000000 0.000000 0
0.020000 0.000000 0
0.040000 0.000000 0
0.060000 0.000000 0
0.080000 0.000000 0
0.100000 0.000000 0
0.120000 0.000000 0
0.140000 0.000000 0
0.160000 0.000000 0
0.180000 0.000000 0
0.200000 0.000000 0
0.220000 0.000000 0
0.240000 0.000000 0
0.260000 0.000000 0
0.280000 0.000000 0
0.300000 0.000000 0
0.320000 0.000000 0
0.340000 0.000000 0
0.360000 0.000000 0
0.380000 0.000000 0
0.400000 0.000000 0
0.420000 0.000000 0
0.440000 0.000000 0
0.460000 0.000000 0
0.480000 0.000000 0
0.500000 0.000000 0
0.520000 0.000000 0
0.540000 0.000000 0
0.560000 0.000000 0
0.580000 0.000000 0
0.600000 0.000000 0
0.620000 0.000000 0
0.640000 0.000000 0
0.660000 0.000000 0
0.680000 0.000000 0
0.700000 0.000000 0
0.720000 0.000000 0
0.740000 0.000000 0
0.760000 0.000000 0
0.780000 0.000000 0
0.800000 0.000000 0
0.820000 0.000000 0
0.840000 0.000000 0
0.860000 0.000000 0
0.880000 0.000000 0
0.900000 0.000000 0
0.920000 0.000000 0
0.940000 0.000000 0
0.960000 0.000000 0
0.980000 0.000000 0
1.000000 0.000000 0
1.020000 0.000000 0
1.040000 0.000000 0
1.060000 0.000000 0
1.080000 0.000000 0
1.100000 0.000000 0
1.120000 0.000000 0
1.140000 0.000000 0
1.160000 0.000000 0
1.180000 0.000000 0
1.200000 0.000000 0
1.220000 0.000000 0
1.240000 0.000000 0
1.260000 0.000000 0
1.280000 0.000000 0
1.300000 0.000000 0
1.320000 0.000000 0
1.340000 0.000000 0
1.360000 0.000000 0
1.380000 0.000000 0
1.400000 0.000000 0
1.420000 0.000000 0
1.440000 0.000000 0
1.460000 0.000000 0
1.480000 0.000000 0
1.500000 0.000000 0
1.520000 0.000000 0
1.540000 0.000000 0
1.560000 0.000000 0
1.580000 0.000000 0
1.600000 0.000000 0
1.620000 0.000000 0
1.640000 0.000000 0
1.660000 0.000000 0
1.680000 0.000000 0
1.700000 0.000000 0
1.720000 0.000000 0
1.740000 0.000000 0
1.760000 0.000000 0
1.780000 0.000000 0
1.800000 0.000000 0
1.820000 0.000000 0
1.840000 0.000000 0
1.860000 0.000000 0
1.880000 0.000000 0
1.900000 0.000000 0
1.920000 0.000000 0
1.940000 0.000000 0
1.960000 0.000000 0
1.980000 0.000000 0
2.000000 0.000000 0
0.000000 0.020000 0
0.020000 0.020000 0
0.040000 0.020000 0
0.060000 0.020000 0
0.080000 0.020000 0
0.100000 0.020000 0
0.120000 0.020000 0
0.140000 0.020000 0
0.160000 0.020000 0
0.180000 0.020000 0
0.200000 0.020000 0
0.220000 0.020000 0
0.240000 0.020000 0
0.260000 0.020000 0
0.280000 0.020000 0
0.300000 0.020000 0
0.320000 0.020000 0
0.340000 0.020000 0
0.360000 0.020000 0
0.380000 0.020000 0
0.400000 0.020000 0
0.420000 0.020000 0
0.440000 0.020000 0
0.460000 0.020000 0
0.480000 0.020000 0
0.500000 0.020000 0
0.520000 0.020000 0
0.540000 0.020000 0
0.560000 0.020000 0
0.580000 0.020000 0
0.600000 0.020000 0
0.620000 0.020000 0
0.640000 0.020000 0
0.660000 0.020000 0
0.680000 0.020000 0
0.700000 0.020000 0
0.720000 0.020000 0
0.740000 0.020000 0
0.760000 0.020000 0
0.780000 0.020000 0
0.800000 0.020000 0
0.820000 0.020000 0
0.840000 0.020000 0
0.860000 0.020000 0
0.880000 0.020000 0
0.900000 0.020000 0
0.920000 0.020000 0
0.940000 0.020000 0
0.960000 0.020000 0
0.980000 0.020000 0
1.000000 0.020000 0
1.020000 0.020000 0
1.040000 0.020000 0
1.060000 0.020000 0
1.080000 0.020000 0
1.100000 0.020000 0
1.120000 0.020000 0
1.140000 0.020000 0
1.160000 0.020000 0
1.180000 0.020000 0
1.200000 0.020000 0
1.220000 0.020000 0
1.240000 0.020000 0
1.260000 0.020000 0
1.280000 0.020000 0
1.300000 0.020000 0
1.320000 0.020000 0
1.340000 0.020000 0
1.360000 0.020000 0
1.380000 0.020000 0
1.400000 0.020000 0
1.420000 0.020000 0
1.440000 0.020000 0
1.460000 0.020000 0
1.480000 0.020000 0
1.500000 0.020000 0
1.520000 0.020000 0
1.540000 0.020000 0
1.560000 0.020000 0
1.580000 0.020000 0
1.600000 0.020000 0
1.620000 0.020000 0
1.640000 0.020000 0
1.660000 0.020000 0
1.680000 0.020000 0
1.700000 0.020000 0
1.720000 0.020000 0
1.740000 0.020000 0
1.760000 0.020000 0
1.780000 0.020000 0
1.800000 0.020000 0
1.820000 0.020000 0
1.840000 0.020000 0
1.860000 0.020000 0
1.880000 0.020000 0
1.900000 0.020000 0
1.920000 0.020000 0
1.940000 0.020000 0
1.960000 0.020000 0
1.980000 0.020000 0
2.000000 0.020000 0
0.000000 0.040000 0
0.020000 0.040000 0
0.040000 0.040000 0
0.060000 0.040000 0
0.080000 0.040000 0
0.100000 0.040000 0
0.120000 0.040000 0
0.140000 0.040000 0
0.160000 0.040000 0
0.180000 0.040000 0
0.200000 0.040000 0
0.220000 0.040000 0
0.240000 0.040000 0
0.260000 0.040000 0
0.280000 0.040000 0
0.300000 0.040000 0
0.320000 0.040000 0
0.340000 0.040000 0
0.360000 0.040000 0
0.380000 0.040000 0
0.400000 0.040000 0
0.420000 0.040000 0
0.440000 0.040000 0
0.460000 0.040000 0
0.480000 0.040000 0
0.500000 0.040000 0
0.520000 0.040000 0
0.540000 0.040000 0
0.560000 0.040000 0
0.580000 0.040000 0
0.600000 0.040000 0
0.620000 0.040000 0
0.640000 0.040000 0
0.660000 0.040000 0
0.680000 0.040000 0
0.700000 0.040000 0
0.720000 0.040000 0
0.740000 0.040000 0
0.760000 0.040000 0
0.780000 0.040000 0
0.800000 0.040000 0
0.820000 0.040000 0
0.840000 0.040000 0
0.860000 0.040000 0
0.880000 0.040000 0
0.900000 0.040000 0
0.920000 0.040000 0
0.940000 0.040000 0
0.960000 0.040000 0
0.980000 0.040000 0
1.000000 0.040000 0
1.020000 0.040000 0
1.040000 0.040000 0
1.060000 0.040000 0
1.080000 0.040000 0
1.100000 0.040000 0
1.120000 0.040000 0
1.140000 0.040000 0
1.160000 0.040000 0
1.180000 0.040000 0
1.200000 0.040000 0
1.220000 0.040000 0
1.240000 0.040000 0
1.260000 0.040000 0
1.280000 0.040000 0
1.300000 0.040000 0
1.320000 0.040000 0
1.340000 0.040000 0
1.360000 0.040000 0
1.380000 0.040000 0
1.400000 0.040000 0
1.420000 0.040000 0
1.440000 0.040000 0
1.460000 0.040000 0
1.480000 0.040000 0
1.500000 0.040000 0
1.520000 0.040000 0
1.540000 0.040000 0
1.560000 0.040000 0
1.580000 0.040000 0
1.600000 0.040000 0
1.620000 0.040000 0
1.640000 0.040000 0
1.660000 0.040000 0
1.680000 0.040000 0
1.700000 0.040000 0
1.720000 0.040000 0
1.740000 0.040000 0
1.760000 0.040000 0
1.780000 0.040000 0
1.800000 0.040000 0
1.820000 0.040000 0
1.840000 0.040000 0
1.860000 0.040000 0
1.880000 0.040000 0
1.900000 0.040000 0
1.920000 0.040000 0
1.940000 0.040000 0
1.960000 0.040000 0
1.980000 0.040000 0
2.000000 0.040000 0
0.000000 0.060000 0
0.020000 0.060000 0
0.040000 0.060000 0
0.060000 0.060000 0
0.080000 0.060000 0
0.100000 0.060000 0
0.120000 0.060000 0
0.140000 0.060000 0
0.160000 0.060000 0
0.180000 0.060000 0
0.200000 0.060000 0
0.220000 0.060000 0
0.240000 0.060000 0
0.260000 0.060000 0
0.280000 0.060000 0
0.300000 0.060000 0
0.320000 0.060000 0
0.340000 0.060000 0
0.360000 0.060000 0
0.380000 0.060000 0
0.400000 0.060000 0
0.420000 0.060000 0
0.440000 0.060000 0
0.460000 0.060000 0
0.480000 0.060000 0
0.500000 0.060000 0
0.520000 0.060000 0
0.540000 0.060000 0
0.560000 0.060000 0
0.580000 0.060000 0
0.600000 0.060000 0
0.620000 0.060000 0
0.640000 0.060000 0
0.660000 0.060000 0
0.680000 0.060000 0
0.700000 0.060000 0
0.720000 0.060000 0
0.740000 0.060000 0
0.760000 0.060000 0
0.780000 0.060000 0
0.800000 0.060000 0
0.820000 0.060000 0
0.840000 0.060000 0
0.860000 0.060000 0
0.880000 0.060000 0
0.900000 0.060000 0
0.920000 0.060000 0
0.940000 0.060000 0
0.960000 0.060000 0
0.980000 0.060000 0
1.000000 0.060000 0
1.020000 0.060000 0
1.040000 0.060000 0
1.060000 0.060000 0
1.080000 0.060000 0
1.100000 0.060000 0
1.120000 0.060000 0
1.140000 0.060000 0
1.160000 0.060000 0
1.180000 0.060000 0
1.200000 0.060000 0
1.220000 0.060000 0
1.240000 0.060000 0
1.260000 0.060000 0
1.280000 0.060000 0
1.300000 0.060000 0
1.320000 0.060000 0
1.340000 0.060000 0
1.360000 0.060000 0
1.380000 0.060000 0
1.400000 0.060000 0
1.420000 0.060000 0
1.440000 0.060000 0
1.460000 0.060000 0
1.480000 0.060000 0
1.500000 0.060000 0
1.520000 0.060000 0
1.540000 0.060000 0
1.560000 0.060000 0
1.580000 0.060000 0
1.600000 0.060000 0
1.620000 0.060000 0
1.640000 0.060000 0
1.660000 0.060000 0
1.680000 0.060000 0
1.700000 0.060000 0
1.720000 0.060000 0
1.740000 0.060000 0
1.760000 0.060000 0
1.780000 0.060000 0
1.800000 0.060000 0
1.820000 0.060000 0
1.840000 0.060000 0
1.860000 0.060000 0
1.880000 0.060000 0
1.900000 0.060000 0
1.920000 0.060000 0
1.940000 0.060000 0
1.960000 0.060000 0
1.980000 0.060000 0
2.000000 0.060000 0
0.000000 0.080000 0
0.020000 0.080000 0
0.040000 0.080000 0
0.060000 0.080000 0
0.080000 0.080000 0
0.100000 0.080000 0
0.120000 0.080000 0
0.140000 0.080000 0
0.160000 0.080000 0
0.180000 0.080000 0
0.200000 0.080000 0
0.220000 0.080000 0
0.240000 0.080000 0
0.260000 0.080000 0
0.280000 0.080000 0
0.300000 0.080000 0
0.320000 0.080000 0
0.340000 0.080000 0
0.360000 0.080000 0
0.380000 0.080000 0
0.400000 0.080000 0
0.420000 0.080000 0
0.440000 0.080000 0
0.460000 0.080000 0
0.480000 0.080000 0
0.500000 0.080000 0
0.520000 0.080000 0
0.540000 0.080000 0
0.560000 0.080000 0
0.580000 0.080000 0
0.600000 0.080000 0
0.620000 0.080000 0
0.640000 0.080000 0
0.660000 0.080000 0
0.680000 0.080000 0
0.700000 0.080000 0
0.720000 0.080000 0
0.740000 0.080000 0
0.760000 0.080000 0
0.780000 0.080000 0
0.800000 0.080000 0
0.820000 0.080000 0
0.840000 0.080000 0
0.860000 0.080000 0
0.880000 0.080000 0
0.900000 0.080000 0
0.920000 0.080000 0
0.940000 0.080000 0
0.960000 0.080000 0
0.980000 0.080000 0
1.000000 0.080000 0
1.020000 0.080000 0
1.040000 0.080000 0
1.060000 0.080000 0
1.080000 0.080000 0
1.100000 0.080000 0
1.120000 0.080000 0
1.140000 0.080000 0
1.160000 0.080000 0
1.180000 0.080000 0
1.200000 0.080000 0
1.220000 0.080000 0
1.240000 0.080000 0
1.260000 0.080000 0
1.280000 0.080000 0
1.300000 0.080000 0
1.320000 0.080000 0
1.340000 0.080000 0
1.360000 0.080000 0
1.380000 0.080000 0
1.400000 0.080000 0
1.420000 0.080000 0
1.440000 0.080000 0
1.460000 0.080000 0
1.480000 0.080000 0
1.500000 0.080000 0
1.520000 0.080000 0
1.540000 0.080000 0
1.560000 0.080000 0
1.580000 0.080000 0
1.600000 0.080000 0
1.620000 0.080000 0
1.640000 0.080000 0
1.660000 0.080000 0
1.680000 0.080000 0
1.700000 0.080000 0
1.720000 0.080000 0
[...]
POINT_DATA 5151 

VECTORS velocity float
0.000000 0.000000 0
-0.000000 0.000000 0
-0.000000 0.000000 0
-0.000000 0.000000 0
0.000000 0.000000 0
0.000000 0.000000 0
0.000000 0.000000 0
-0.000000 0.000000 0
-0.000000 0.000000 0
-0.000000 0.000000 0
-0.000000 0.000000 0
0.000000 0.000000 0
0.000000 0.000000 0
0.000000 0.000000 0
0.000000 0.000000 0
0.000000 0.000000 0
-0.000000 0.000000 0
-0.000000 0.000000 0
-0.000000 0.000000 0
-0.000000 0.000000 0
-0.000000 0.000000 0
0.000000 0.000000 0
0.000000 0.000000 0
0.000000 0.000000 0
0.000000 0.000000 0
0.000000 0.000000 0
0.000000 0.000000 0
-0.000000 0.000000 0
-0.000000 0.000000 0
-0.000000 0.000000 0
-0.000000 0.000000 0
0.000000 0.000000 0
0.000000 0.000000 0
0.000000 0.000000 0
0.000000 0.000000 0
0.000000 0.000000 0
0.000000 0.000000 0
0.000000 0.000000 0
0.000000 0.000000 0
0.000000 0.000000 0
0.000000 0.000000 0
0.000000 0.000000 0
0.000000 0.000000 0
0.000000 0.000000 0
0.000000 0.000000 0
0.000000 0.000000 0
0.000000 0.000000 0
0.000000 0.000000 0
0.000000 0.000000 0
0.000000 0.000000 0
0.000000 0.000000 0
0.000000 0.000000 0
0.000000 0.000000 0
-0.000000 0.000000 0
-0.000000 0.000000 0
0.000000 0.000000 0
0.000000 0.000000 0
0.000000 0.000000 0
0.000000 0.000000 0
0.000000 0.000000 0
0.000000 0.000000 0
0.000000 0.000000 0
0.000000 0.000000 0
0.000000 0.000000 0
0.000000 0.000000 0
0.000000 0.000000 0
0.000000 0.000000 0
0.000000 0.000000 0
0.000000 0.000000 0
0.000000 0.000000 0
0.000000 0.000000 0
0.000000 0.000000 0
0.000000 0.000000 0
0.000000 0.000000 0
0.000000 0.000000 0
0.000000 0.000000 0
0.000000 0.000000 0
0.000000 0.000000 0
0.000000 0.000000 0
0.000000 0.000000 0
0.000000 0.000000 0
0.000000 0.000000 0
0.000000 0.000000 0
0.000000 0.000000 0
0.000000 0.000000 0
0.000000 0.000000 0
0.000000 0.000000 0
0.000000 0.000000 0
0.000000 0.000000 0
0.000000 0.000000 0
0.000000 0.000000 0
0.000000 0.000000 0
-0.000000 0.000000 0
-0.000000 0.000000 0
-0.000000 0.000000 0
-0.000000 0.000000 0
-0.000000 0.000000 0
-0.000000 0.000000 0
-0.000000 0.000000 0
-0.000000 0.000000 0
0.000000 0.000000 0
0.000000 -0.000000 0
-0.002552 0.001361 0
-0.003068 -0.000220 0
-0.002944 -0.000320 0
-0.002766 -0.000203 0
-0.002633 -0.000119 0
-0.002540 -0.000072 0
-0.002475 -0.000045 0
-0.002428 -0.000029 0
-0.002394 -0.000019 0
-0.002368 -0.000012 0
-0.002349 -0.000006 0
-0.002334 -0.000002 0
-0.002323 0.000001 0
-0.002314 0.000004 0
-0.002308 0.000006 0
-0.002303 0.000008 0
-0.002300 0.000010 0
-0.002297 0.000011 0
-0.002295 0.000013 0
-0.002294 0.000014 0
-0.002292 0.000016 0
-0.002291 0.000017 0
-0.002288 0.000018 0
-0.002285 0.000020 0
-0.002281 0.000021 0
-0.002275 0.000023 0
-0.002266 0.000024 0
-0.002255 0.000025 0
-0.002237 0.000024 0
-0.002213 0.000023 0
-0.002181 0.000031 0
-0.002159 0.000061 0
-0.002164 0.000075 0
-0.002118 -0.000169 0
-0.001595 -0.001091 0
0.000000 0.000000 0
0.000000 0.000888 0
0.000000 0.000000 0
0.000000 0.000000 0
0.000000 -0.629544 0
-1.016905 -0.242229 0
-1.175303 0.345794 0
-1.119924 -0.003470 0
-1.137325 0.030621 0
-1.124940 -0.006508 0
-1.118541 -0.003113 0
-1.108514 -0.007261 0
-1.099123 -0.006899 0
-1.089500 -0.007162 0
-1.080133 -0.006927 0
-1.070899 -0.006791 0
-1.061788 -0.006675 0
-1.052705 -0.006661 0
-1.043556 -0.006750 0
-1.034239 -0.006953 0
-1.024648 -0.007267 0
-1.014683 -0.007688 0
-1.004250 -0.008204 0
-0.993267 -0.008806 0
-0.981660 -0.009479 0
-0.969371 -0.010211 0
-0.956350 -0.010992 0
-0.942558 -0.011813 0
-0.927961 -0.012670 0
-0.912526 -0.013564 0
-0.896218 -0.014499 0
-0.878996 -0.015480 0
-0.860812 -0.016516 0
-0.841609 -0.017617 0
-0.821321 -0.018792 0
-0.799873 -0.020049 0
-0.777182 -0.021398 0
-0.753157 -0.022846 0
-0.727701 -0.024399 0
-0.700711 -0.026064 0
-0.672078 -0.027845 0
-0.641690 -0.029745 0
-0.609436 -0.031765 0
-0.575201 -0.033902 0
-0.538876 -0.036151 0
-0.500363 -0.038498 0
-0.459578 -0.040919 0
-0.416465 -0.043381 0
-0.371010 -0.045830 0
-0.323259 -0.048192 0
-0.273345 -0.050367 0
-0.221520 -0.052231 0
-0.168204 -0.053666 0
-0.114041 -0.054662 0
-0.059996 -0.055464 0
-0.007587 -0.050716 0
0.040570 -0.040978 0
0.080552 -0.029364 0
0.107425 -0.013668 0
0.119121 0.003580 0
0.112699 0.018517 0
0.093190 0.028977 0
0.064750 0.034866 0
0.031276 0.034391 0
0.000000 -0.000000 0
0.000000 -0.000000 0
-0.001885 0.003068 0
-0.003015 0.000392 0
-0.003291 -0.000302 0
-0.003291 -0.000311 0
-0.003234 -0.000226 0
-0.003173 -0.000158 0
-0.003117 -0.000112 0
-0.003069 -0.000081 0
-0.003027 -0.000060 0
-0.002990 -0.000045 0
-0.002957 -0.000034 0
-0.002926 -0.000026 0
-0.002897 -0.000020 0
-0.002869 -0.000015 0
-0.002842 -0.000011 0
-0.002815 -0.000008 0
-0.002787 -0.000006 0
-0.002759 -0.000004 0
-0.002729 -0.000004 0
-0.002698 -0.000003 0
-0.002665 -0.000003 0
-0.002629 -0.000004 0
-0.002590 -0.000005 0
-0.002547 -0.000008 0
-0.002500 -0.000010 0
-0.002448 -0.000014 0
-0.002390 -0.000020 0
-0.002325 -0.000029 0
-0.002252 -0.000042 0
-0.002167 -0.000056 0
-0.002077 -0.000054 0
-0.001995 -0.000018 0
-0.001929 -0.000041 0
-0.001780 -0.000569 0
-0.001194 -0.002118 0
0.000000 0.000000 0
0.000000 0.001595 0
0.000000 0.000000 0
0.000000 0.000000 0
0.000000 -0.441678 0
-1.585533 -0.283280 0
-1.329955 0.103019 0
-1.300882 -0.037979 0
-1.264354 0.005016 0
-1.249527 -0.018784 0
-1.234154 -0.016426 0
-1.221208 -0.019418 0
-1.208620 -0.019014 0
-1.196565 -0.018990 0
-1.184781 -0.018601 0
-1.173202 -0.018344 0
-1.161724 -0.018195 0
-1.150254 -0.018232 0
-1.138696 -0.018466 0
-1.126953 -0.018909 0
-1.114931 -0.019556 0
-1.102538 -0.020397 0
-1.089690 -0.021416 0
-1.076312 -0.022590 0
-1.062342 -0.023896 0
-1.047726 -0.025310 0
-1.032426 -0.026812 0
-1.016410 -0.028389 0
-0.999653 -0.030032 0
-0.982129 -0.031744 0
-0.963809 -0.033530 0
-0.944660 -0.035406 0
-0.924639 -0.037387 0
-0.903694 -0.039491 0
-0.881765 -0.041736 0
-0.858783 -0.044139 0
-0.834671 -0.046716 0
-0.809348 -0.049481 0
-0.782725 -0.052447 0
-0.754711 -0.055624 0
-0.725207 -0.059020 0
-0.694116 -0.062642 0
-0.661338 -0.066490 0
-0.626772 -0.070560 0
-0.590325 -0.074838 0
-0.551910 -0.079298 0
-0.511458 -0.083898 0
-0.468923 -0.088567 0
-0.424299 -0.093206 0
-0.377634 -0.097666 0
-0.329060 -0.101739 0
-0.278832 -0.105141 0
-0.227391 -0.107479 0
-0.175486 -0.108208 0
-0.124428 -0.106454 0
-0.076487 -0.100566 0
-0.029403 -0.088139 0
0.012083 -0.066854 0
0.045588 -0.038569 0
0.066990 -0.005274 0
0.070496 0.025931 0
0.062512 0.047949 0
0.045667 0.061914 0
0.022551 0.064750 0
0.000000 -0.000000 0
0.000000 0.000000 0
-0.001113 0.004376 0
-0.002120 0.001186 0
-0.002508 -0.000044 0
-0.002627 -0.000260 0
-0.002667 -0.000237 0
-0.002675 -0.000188 0
-0.002666 -0.000149 0
-0.002646 -0.000119 0
-0.002621 -0.000098 0
-0.002592 -0.000082 0
-0.002561 -0.000071 0
-0.002528 -0.000062 0
-0.002494 -0.000056 0
-0.002458 -0.000051 0
-0.002420 -0.000049 0
-0.002381 -0.000047 0
-0.002340 -0.000046 0
-0.002297 -0.000047 0
-0.002251 -0.000048 0
-0.002204 -0.000050 0
-0.002153 -0.000054 0
-0.002101 -0.000058 0
-0.002045 -0.000063 0
-0.001986 -0.000070 0
-0.001924 -0.000078 0
-0.001859 -0.000087 0
-0.001791 -0.000099 0
-0.001720 -0.000114 0
-0.001646 -0.000134 0
-0.001571 -0.000152 0
-0.001503 -0.000142 0
-0.001456 -0.000087 0
-0.001428 -0.000140 0
-0.001309 -0.000904 0
-0.000822 -0.002870 0
0.000000 0.000000 0
0.000000 0.002082 0
0.000000 0.000000 0
0.000000 0.000000 0
0.000000 -0.460752 0
-1.375001 -0.329015 0
-1.318044 0.061143 0
-1.291909 -0.069071 0
-1.261945 -0.020734 0
-1.242824 -0.036708 0
-1.226549 -0.031432 0
-1.212686 -0.032794 0
-1.199926 -0.031541 0
-1.187910 -0.031001 0
-1.176342 -0.030290 0
-1.165055 -0.029848 0
-1.153917 -0.029624 0
-1.142815 -0.029689 0
-1.131642 -0.030051 0
-1.120297 -0.030718 0
-1.108681 -0.031683 0
-1.096701 -0.032928 0
-1.084271 -0.034430 0
-1.071318 -0.036154 0
-1.057779 -0.038065 0
-1.043612 -0.040126 0
-1.028784 -0.042307 0
-1.013277 -0.044586 0
-0.997076 -0.046952 0
-0.980170 -0.049408 0
-0.962540 -0.051967 0
-0.944162 -0.054650 0
-0.924999 -0.057482 0
-0.905006 -0.060491 0
-0.884126 -0.063703 0
-0.862297 -0.067143 0
-0.839450 -0.070833 0
-0.815510 -0.074791 0
-0.790397 -0.079036 0
-0.764031 -0.083582 0
-0.736327 -0.088439 0
-0.707200 -0.093614 0
-0.676563 -0.099109 0
-0.644335 -0.104915 0
-0.610434 -0.111013 0
-0.574792 -0.117364 0
-0.537352 -0.123906 0
-0.498080 -0.130540 0
-0.456977 -0.137120 0
-0.414091 -0.143431 0
-0.369543 -0.149169 0
-0.323553 -0.153900 0
-0.276495 -0.157012 0
-0.228957 -0.157625 0
-0.181822 -0.154462 0
-0.136262 -0.145741 0
-0.093433 -0.129548 0
-0.054398 -0.104355 0
-0.020329 -0.068574 0
0.004415 -0.021328 0
0.018814 0.022995 0
0.021255 0.053806 0
0.016697 0.074827 0
0.007227 0.080058 0
0.000000 -0.000000 0
0.000000 0.000000 0
-0.000559 0.005188 0
-0.001230 0.001787 0
-0.001500 0.000206 0
-0.001604 -0.000152 0
-0.001674 -0.000179 0
-0.001725 -0.000159 0
-0.001757 -0.000141 0
-0.001771 -0.000126 0
-0.001772 -0.000114 0
-0.001764 -0.000105 0
-0.001748 -0.000098 0
-0.001728 -0.000093 0
-0.001704 -0.000090 0
-0.001676 -0.000088 0
-0.001645 -0.000088 0
-0.001612 -0.000089 0
-0.001576 -0.000090 0
-0.001539 -0.000093 0
-0.001500 -0.000096 0
-0.001459 -0.000101 0
-0.001417 -0.000106 0
-0.001373 -0.000113 0
-0.001329 -0.000120 0
-0.001285 -0.000128 0
-0.001240 -0.000137 0
-0.001196 -0.000147 0
-0.001154 -0.000159 0
-0.001113 -0.000174 0
-0.001076 -0.000191 0
-0.001046 -0.000200 0
-0.001030 -0.000169 0
-0.001041 -0.000092 0
-0.001058 -0.000187 0
-0.000964 -0.001175 0
-0.000556 -0.003427 0
0.000000 0.000000 0
0.000000 0.002417 0
0.000000 0.000000 0
0.000000 0.000000 0
0.000000 -0.457592 0
-1.327157 -0.356151 0
-1.277226 0.019927 0
-1.258270 -0.094078 0
-1.232945 -0.044069 0
-1.215547 -0.054179 0
-1.199771 -0.046564 0
-1.186351 -0.046042 0
-1.174012 -0.043790 0
-1.162514 -0.042574 0
-1.151516 -0.041456 0
-1.140850 -0.040769 0
-1.130363 -0.040435 0
-1.119934 -0.040507 0
-1.109449 -0.040984 0
-1.098797 -0.041870 0
-1.087874 -0.043152 0
-1.076578 -0.044807 0
-1.064819 -0.046800 0
-1.052518 -0.049082 0
-1.039617 -0.051601 0
-1.026077 -0.054305 0
-1.011879 -0.057148 0
-0.997022 -0.060097 0
-0.981509 -0.063139 0
-0.965348 -0.066279 0
-0.948535 -0.069538 0
-0.931055 -0.072947 0
-0.912881 -0.076543 0
-0.893973 -0.080364 0
-0.874278 -0.084444 0
-0.853740 -0.088815 0
-0.832295 -0.093504 0
-0.809877 -0.098534 0
-0.786418 -0.103925 0
-0.761847 -0.109694 0
-0.736094 -0.115852 0
-0.709090 -0.122405 0
-0.680766 -0.129355 0
-0.651055 -0.136689 0
-0.619896 -0.144380 0
-0.587234 -0.152381 0
-0.553031 -0.160609 0
-0.517263 -0.168942 0
-0.479935 -0.177195 0
-0.441091 -0.185100 0
-0.400829 -0.192277 0
-0.359317 -0.198188 0
-0.316820 -0.202075 0
-0.273722 -0.202881 0
-0.230540 -0.199149 0
-0.187903 -0.188955 0
-0.146521 -0.170003 0
-0.107550 -0.139958 0
-0.072902 -0.097382 0
-0.044393 -0.044417 0
-0.022091 0.009090 0
-0.012057 0.050066 0
-0.007101 0.075943 0
-0.005115 0.081447 0
0.000000 -0.000000 0
0.000000 0.000000 0
-0.000192 0.005606 0
-0.000571 0.002127 0
-0.000687 0.000330 0
-0.000711 -0.000086 0
-0.000747 -0.000116 0
-0.000798 -0.000105 0
-0.000843 -0.000103 0
-0.000875 -0.000105 0
-0.000896 -0.000106 0
-0.000906 -0.000106 0
-0.000909 -0.000106 0
-0.000907 -0.000107 0
-0.000900 -0.000108 0
-0.000890 -0.000110 0
-0.000876 -0.000113 0
-0.000860 -0.000116 0
-0.000843 -0.000119 0
-0.000824 -0.000123 0
-0.000805 -0.000128 0
-0.000785 -0.000133 0
-0.000765 -0.000139 0
-0.000746 -0.000145 0
-0.000728 -0.000152 0
-0.000711 -0.000159 0
-0.000696 -0.000166 0
-0.000685 -0.000173 0
-0.000676 -0.000182 0
-0.000672 -0.000192 0
-0.000673 -0.000202 0
-0.000682 -0.000198 0
-0.000706 -0.000147 0
-0.000750 -0.000059 0
-0.000781 -0.000217 0
-0.000690 -0.001406 0
-0.000353 -0.003834 0
0.000000 0.000000 0
0.000000 0.002638 0
0.000000 0.000000 0
0.000000 0.000000 0
0.000000 -0.451572 0
-1.261071 -0.369766 0
-1.224039 -0.007744 0
-1.211171 -0.113352 0
-1.190855 -0.063457 0
-1.176036 -0.069883 0
-1.161864 -0.060628 0
-1.149498 -0.058553 0
-1.137995 -0.055379 0
-1.127250 -0.053497 0
-1.116980 -0.051954 0
-1.107044 -0.051001 0
-1.097299 -0.050539 0
-1.087623 -0.050604 0
-1.077899 -0.051188 0
-1.068011 -0.052293 0
-1.057844 -0.053902 0
-1.047285 -0.055984 0
-1.036232 -0.058490 0
-1.024601 -0.061356 0
-1.012332 -0.064506 0
-0.999392 -0.067864 0
-0.985779 -0.071362 0
-0.971515 -0.074956 0
-0.956633 -0.078626 0
-0.941164 -0.082383 0
-0.925123 -0.086260 0
-0.908510 -0.090303 0
-0.891302 -0.094565 0
-0.873463 -0.099095 0
-0.854943 -0.103936 0
-0.835688 -0.109126 0
-0.815640 -0.114695 0
-0.794741 -0.120669 0
-0.772932 -0.127067 0
-0.750155 -0.133905 0
-0.726354 -0.141195 0
-0.701477 -0.148942 0
-0.675470 -0.157144 0
-0.648285 -0.165786 0
-0.619878 -0.174833 0
-0.590212 -0.184229 0
-0.559260 -0.193878 0
-0.527007 -0.203636 0
-0.493462 -0.213291 0
-0.458658 -0.222537 0
-0.422662 -0.230943 0
-0.385583 -0.237909 0
-0.347578 -0.242607 0
-0.308842 -0.243905 0
-0.269604 -0.240282 0
-0.230086 -0.229760 0
-0.190499 -0.209901 0
-0.151143 -0.177974 0
-0.112682 -0.131732 0
-0.076820 -0.072138 0
-0.047841 -0.009341 0
-0.031920 0.038815 0
-0.021508 0.067885 0
-0.012170 0.072957 0
0.000000 -0.000000 0
0.000000 0.000000 0
0.000055 0.005759 0
-0.000136 0.002282 0
-0.000165 0.000345 0
-0.000123 -0.000092 0
-0.000109 -0.000091 0
-0.000130 -0.000063 0
-0.000164 -0.000063 0
-0.000195 -0.000073 0
-0.000220 -0.000083 0
-0.000239 -0.000091 0
-0.000253 -0.000097 0
-0.000264 -0.000103 0
-0.000273 -0.000108 0
-0.000279 -0.000112 0
-0.000283 -0.000117 0
-0.000286 -0.000122 0
-0.000288 -0.000126 0
-0.000290 -0.000131 0
-0.000292 -0.000136 0
-0.000295 -0.000141 0
-0.000298 -0.000145 0
-0.000303 -0.000150 0
-0.000310 -0.000155 0
-0.000319 -0.000159 0
-0.000330 -0.000164 0
-0.000345 -0.000167 0
-0.000362 -0.000172 0
-0.000383 -0.000177 0
-0.000407 -0.000181 0
-0.000439 -0.000166 0
-0.000482 -0.000101 0
-0.000535 -0.000017 0
-0.000559 -0.000247 0
-0.000468 -0.001603 0
-0.000198 -0.004118 0
0.000000 0.000000 0
0.000000 0.002770 0
0.000000 0.000000 0
0.000000 0.000000 0
0.000000 -0.437857 0
-1.195617 -0.373449 0
-1.163727 -0.029973 0
-1.156581 -0.127261 0
-1.140466 -0.079205 0
-1.128566 -0.083171 0
-1.116368 -0.073102 0
-1.105411 -0.069910 0
-1.094999 -0.066038 0
-1.085183 -0.063589 0
-1.075769 -0.061661 0
-1.066661 -0.060451 0
-1.057739 -0.059857 0
-1.048895 -0.059906 0
-1.040009 -0.060595 0
-1.030958 -0.061925 0
-1.021615 -0.063879 0
-1.011849 -0.066419 0
-1.001540 -0.069483 0
-0.990589 -0.072982 0
-0.978929 -0.076811 0
-0.966535 -0.080858 0
-0.953428 -0.085024 0
-0.939662 -0.089243 0
-0.925312 -0.093491 0
-0.910446 -0.097789 0
-0.895104 -0.102192 0
-0.879295 -0.106768 0
-0.863001 -0.111591 0
-0.846183 -0.116723 0
-0.828790 -0.122218 0
-0.810768 -0.128117 0
-0.792060 -0.134451 0
-0.772615 -0.141243 0
-0.752383 -0.148512 0
-0.731319 -0.156271 0
-0.709381 -0.164530 0
-0.686532 -0.173290 0
-0.662735 -0.182547 0
-0.637960 -0.192280 0
-0.612179 -0.202453 0
-0.585368 -0.212999 0
-0.557511 -0.223814 0
-0.528601 -0.234740 0
-0.498643 -0.245544 0
-0.467656 -0.255900 0
-0.435676 -0.265352 0
-0.402754 -0.273272 0
-0.368952 -0.278816 0
-0.334319 -0.280855 0
-0.298863 -0.277906 0
-0.262503 -0.268060 0
-0.225022 -0.248946 0
-0.186069 -0.217775 0
-0.145289 -0.171704 0
-0.102978 -0.109258 0
-0.062494 -0.035810 0
-0.034912 0.023732 0
-0.025728 0.056193 0
-0.013955 0.059939 0
0.000000 -0.000000 0
0.000000 -0.000000 0
0.000216 0.005742 0
0.000136 0.002347 0
0.000123 0.000318 0
0.000181 -0.000142 0
0.000226 -0.000109 0
0.000235 -0.000050 0
0.000223 -0.000038 0
0.000205 -0.000049 0
0.000187 -0.000062 0
0.000169 -0.000072 0
0.000153 -0.000080 0
0.000137 -0.000088 0
0.000121 -0.000094 0
0.000105 -0.000100 0
0.000090 -0.000105 0
0.000074 -0.000110 0
0.000058 -0.000115 0
0.000041 -0.000119 0
0.000024 -0.000123 0
0.000005 -0.000127 0
-0.000014 -0.000131 0
-0.000036 -0.000134 0
-0.000059 -0.000136 0
-0.000083 -0.000139 0
-0.000110 -0.000140 0
-0.000139 -0.000142 0
-0.000169 -0.000143 0
-0.000201 -0.000146 0
-0.000236 -0.000146 0
-0.000275 -0.000123 0
-0.000321 -0.000051 0
-0.000370 0.000018 0
-0.000381 -0.000283 0
-0.000292 -0.001767 0
-0.000081 -0.004302 0
0.000000 0.000000 0
0.000000 0.002836 0
0.000000 0.000000 0
0.000000 0.000000 0
0.000000 -0.419722 0
-1.125929 -0.369806 0
-1.099559 -0.046780 0
-1.097208 -0.136613 0
-1.084963 -0.091473 0
-1.075836 -0.093980 0
-1.065686 -0.083783 0
-1.056246 -0.079922 0
-1.047046 -0.075607 0
-1.038265 -0.072727 0
-1.029799 -0.070476 0
-1.021605 -0.069031 0
-1.013594 -0.068305 0
-1.005669 -0.068334 0
-0.997714 -0.069124 0
-0.989598 -0.070687 0
-0.981172 -0.073012 0
-0.972283 -0.076058 0
-0.962780 -0.079750 0
-0.952535 -0.083967 0
-0.941465 -0.088560 0
-0.929552 -0.093366 0
-0.916843 -0.098236 0
-0.903449 -0.103071 0
-0.889508 -0.107842 0
-0.875140 -0.112591 0
-0.860416 -0.117410 0
-0.845352 -0.122406 0
-0.829924 -0.127677 0
-0.814083 -0.133305 0
-0.797767 -0.139351 0
-0.780918 -0.145856 0
-0.763478 -0.152848 0
-0.745401 -0.160346 0
-0.726644 -0.168363 0
-0.707176 -0.176907 0
-0.686967 -0.185982 0
-0.665996 -0.195588 0
-0.644243 -0.205716 0
-0.621694 -0.216342 0
-0.598334 -0.227426 0
-0.574154 -0.238897 0
-0.549147 -0.250645 0
-0.523308 -0.262504 0
-0.496636 -0.274236 0
-0.469136 -0.285504 0
-0.440810 -0.295845 0
-0.411660 -0.304633 0
-0.381670 -0.311043 0
-0.350784 -0.313994 0
-0.318868 -0.312098 0
-0.285654 -0.303601 0
-0.250674 -0.286335 0
-0.213218 -0.257708 0
-0.172356 -0.214823 0
-0.127240 -0.154933 0
-0.078445 -0.077407 0
-0.033546 0.002050 0
-0.021246 0.046927 0
-0.011123 0.047229 0
0.000000 -0.000000 0
0.000000 -0.000000 0
0.000305 0.005623 0
0.000290 0.002376 0
0.000261 0.000300 0
0.000299 -0.000195 0
0.000345 -0.000146 0
0.000369 -0.000060 0
0.000373 -0.000033 0
0.000368 -0.000037 0
0.000359 -0.000048 0
0.000348 -0.000057 0
0.000335 -0.000064 0
0.000320 -0.000071 0
0.000304 -0.000076 0
0.000286 -0.000081 0
0.000267 -0.000086 0
0.000246 -0.000090 0
0.000225 -0.000094 0
0.000202 -0.000097 0
0.000177 -0.000100 0
0.000152 -0.000102 0
0.000125 -0.000104 0
0.000098 -0.000106 0
0.000068 -0.000107 0
0.000038 -0.000108 0
0.000007 -0.000108 0
-0.000025 -0.000108 0
-0.000058 -0.000109 0
-0.000092 -0.000111 0
-0.000126 -0.000108 0
-0.000164 -0.000080 0
-0.000206 -0.000006 0
-0.000244 0.000043 0
-0.000244 -0.000324 0
-0.000159 -0.001903 0
0.000002 -0.004410 0
0.000000 0.000000 0
0.000000 0.002852 0
0.000000 0.000000 0
0.000000 0.000000 0
0.000000 -0.398779 0
-1.053047 -0.360741 0
-1.032809 -0.058694 0
-1.034694 -0.141857 0
-1.026033 -0.100577 0
-1.019401 -0.102448 0
-1.011195 -0.092692 0
-1.003248 -0.088550 0
-0.995292 -0.084020 0
-0.987604 -0.080836 0
-0.980161 -0.078320 0
-0.972966 -0.076656 0
-0.965959 -0.075793 0
-0.959061 -0.075786 0
-0.952158 -0.076666 0
-0.945107 -0.078466 0
-0.937737 -0.081193 0
-0.929854 -0.084812 0
-0.921260 -0.089232 0
-0.911779 -0.094297 0
-0.901297 -0.099794 0
-0.889789 -0.105480 0
-0.877344 -0.111127 0
-0.864156 -0.116578 0
-0.850470 -0.121800 0
-0.836493 -0.126882 0
-0.822322 -0.131980 0
-0.807975 -0.137260 0
-0.793398 -0.142860 0
-0.778520 -0.148880 0
-0.763258 -0.155383 0
-0.747542 -0.162406 0
-0.731312 -0.169968 0
-0.714522 -0.178077 0
-0.697141 -0.186737 0
-0.679145 -0.195948 0
-0.660521 -0.205709 0
-0.641262 -0.216014 0
-0.621363 -0.226849 0
-0.600825 -0.238190 0
-0.579650 -0.249993 0
-0.557838 -0.262187 0
-0.535391 -0.274661 0
-0.512307 -0.287250 0
-0.488578 -0.299717 0
-0.464192 -0.311727 0
-0.439124 -0.322827 0
-0.413330 -0.332412 0
-0.386737 -0.339692 0
-0.359216 -0.343657 0
-0.330548 -0.343036 0
-0.300372 -0.336255 0
-0.268122 -0.321382 0
-0.232973 -0.296093 0
-0.193846 -0.257682 0
-0.149552 -0.203168 0
-0.099347 -0.129504 0
-0.045029 -0.033467 0
-0.005026 0.033770 0
-0.003770 0.038693 0
0.000000 -0.000000 0
0.000000 -0.000000 0
0.000340 0.005452 0
0.000356 0.002392 0
0.000307 0.000309 0
0.000313 -0.000227 0
0.000344 -0.000179 0
0.000367 -0.000078 0
0.000377 -0.000038 0
0.000379 -0.000035 0
0.000376 -0.000042 0
0.000371 -0.000048 0
0.000363 -0.000053 0
0.000352 -0.000056 0
0.000339 -0.000060 0
0.000323 -0.000063 0
0.000306 -0.000066 0
0.000286 -0.000068 0