# vtk DataFile Version 2.0
generated by CFD-lab course output (written by Tobias Neckel) 
ASCII

DATASET STRUCTURED_GRID
DIMENSIONS  101 51 1 
POINTS 5151 float

0.000000 0.000000 0
0.020000 0.000000 0
0.040000 0.000000 0
0.060000 0.000000 0
0.080000 0.000000 0
0.100000 0.000000 0
0.120000 0.000000 0
0.140000 0.000000 0
0.160000 0.000000 0
0.180000 0.000000 0
0.200000 0.000000 0
0.220000 0.000000 0
0.240000 0.000000 0
0.260000 0.000000 0
0.280000 0.000000 0
0.300000 0.000000 0
0.320000 0.000000 0
0.340000 0.000000 0
0.360000 0.000000 0
0.380000 0.000000 0
0.400000 0.000000 0
0.420000 0.000000 0
0.440000 0.000000 0
0.460000 0.000000 0
0.480000 0.000000 0
0.500000 0.000000 0
0.520000 0.000000 0
0.540000 0.000000 0
0.560000 0.000000 0
0.580000 0.000000 0
0.600000 0.000000 0
0.620000 0.000000 0
0.640000 0.000000 0
0.660000 0.000000 0
0.680000 0.000000 0
0.700000 0.000000 0
0.720000 0.000000 0
0.740000 0.000000 0
0.760000 0.000000 0
0.780000 0.000000 0
0.800000 0.000000 0
0.820000 0.000000 0
0.840000 0.000000 0
0.860000 0.000000 0
0.880000 0.000000 0
0.900000 0.000000 0
0.920000 0.000000 0
0.940000 0.000000 0
0.960000 0.000000 0
0.980000 0.000000 0
1.000000 0.000000 0
1.020000 0.000000 0
1.040000 0.000000 0
1.060000 0.000000 0
1.080000 0.000000 0
1.100000 0.000000 0
1.120000 0.000000 0
1.140000 0.000000 0
1.160000 0.000000 0
1.180000 0.000000 0
1.200000 0.000000 0
1.220000 0.000000 0
1.240000 0.000000 0
1.260000 0.000000 0
1.280000 0.000000 0
1.300000 0.000000 0
1.320000 0.000000 0
1.340000 0.000000 0
1.360000 0.000000 0
1.380000 0.000000 0
1.400000 0.000000 0
1.420000 0.000000 0
1.440000 0.000000 0
1.460000 0.000000 0
1.480000 0.000000 0
1.500000 0.000000 0
1.520000 0.000000 0
1.540000 0.000000 0
1.560000 0.000000 0
1.580000 0.000000 0
1.600000 0.000000 0
1.620000 0.000000 0
1.640000 0.000000 0
1.660000 0.000000 0
1.680000 0.000000 0
1.700000 0.000000 0
1.720000 0.000000 0
1.740000 0.000000 0
1.760000 0.000000 0
1.780000 0.000000 0
1.800000 0.000000 0
1.820000 0.000000 0
1.840000 0.000000 0
1.860000 0.000000 0
1.880000 0.000000 0
1.900000 0.000000 0
1.920000 0.000000 0
1.940000 0.000000 0
1.960000 0.000000 0
1.980000 0.000000 0
2.000000 0.000000 0
0.000000 0.020000 0
0.020000 0.020000 0
0.040000 0.020000 0
0.060000 0.020000 0
0.080000 0.020000 0
0.100000 0.020000 0
0.120000 0.020000 0
0.140000 0.020000 0
0.160000 0.020000 0
0.180000 0.020000 0
0.200000 0.020000 0
0.220000 0.020000 0
0.240000 0.020000 0
0.260000 0.020000 0
0.280000 0.020000 0
0.300000 0.020000 0
0.320000 0.020000 0
0.340000 0.020000 0
0.360000 0.020000 0
0.380000 0.020000 0
0.400000 0.020000 0
0.420000 0.020000 0
0.440000 0.020000 0
0.460000 0.020000 0
0.480000 0.020000 0
0.500000 0.020000 0
0.520000 0.020000 0
0.540000 0.020000 0
0.560000 0.020000 0
0.580000 0.020000 0
0.600000 0.020000 0
0.620000 0.020000 0
0.640000 0.020000 0
0.660000 0.020000 0
0.680000 0.020000 0
0.700000 0.020000 0
0.720000 0.020000 0
0.740000 0.020000 0
0.760000 0.020000 0
0.780000 0.020000 0
0.800000 0.020000 0
0.820000 0.020000 0
0.840000 0.020000 0
0.860000 0.020000 0
0.880000 0.020000 0
0.900000 0.020000 0
0.920000 0.020000 0
0.940000 0.020000 0
0.960000 0.020000 0
0.980000 0.020000 0
1.000000 0.020000 0
1.020000 0.020000 0
1.040000 0.020000 0
1.060000 0.020000 0
1.080000 0.020000 0
1.100000 0.020000 0
1.120000 0.020000 0
1.140000 0.020000 0
1.160000 0.020000 0
1.180000 0.020000 0
1.200000 0.020000 0
1.220000 0.020000 0
1.240000 0.020000 0
1.260000 0.020000 0
1.280000 0.020000 0
1.300000 0.020000 0
1.320000 0.020000 0
1.340000 0.020000 0
1.360000 0.020000 0
1.380000 0.020000 0
1.400000 0.020000 0
1.420000 0.020000 0
1.440000 0.020000 0
1.460000 0.020000 0
1.480000 0.020000 0
1.500000 0.020000 0
1.520000 0.020000 0
1.540000 0.020000 0
1.560000 0.020000 0
1.580000 0.020000 0
1.600000 0.020000 0
1.620000 0.020000 0
1.640000 0.020000 0
1.660000 0.020000 0
1.680000 0.020000 0
1.700000 0.020000 0
1.720000 0.020000 0
1.740000 0.020000 0
1.760000 0.020000 0
1.780000 0.020000 0
1.800000 0.020000 0
1.820000 0.020000 0
1.840000 0.020000 0
1.860000 0.020000 0
1.880000 0.020000 0
1.900000 0.020000 0
1.920000 0.020000 0
1.940000 0.020000 0
1.960000 0.020000 0
1.980000 0.020000 0
2.000000 0.020000 0
0.000000 0.040000 0
0.020000 0.040000 0
0.040000 0.040000 0
0.060000 0.040000 0
0.080000 0.040000 0
0.100000 0.040000 0
0.120000 0.040000 0
0.140000 0.040000 0
0.160000 0.040000 0
0.180000 0.040000 0
0.200000 0.040000 0
0.220000 0.040000 0
0.240000 0.040000 0
0.260000 0.040000 0
0.280000 0.040000 0
0.300000 0.040000 0
0.320000 0.040000 0
0.340000 0.040000 0
0.360000 0.040000 0
0.380000 0.040000 0
0.400000 0.040000 0
0.420000 0.040000 0
0.440000 0.040000 0
0.460000 0.040000 0
0.480000 0.040000 0
0.500000 0.040000 0
0.520000 0.040000 0
0.540000 0.040000 0
0.560000 0.040000 0
0.580000 0.040000 0
0.600000 0.040000 0
0.620000 0.040000 0
0.640000 0.040000 0
0.660000 0.040000 0
0.680000 0.040000 0
0.700000 0.040000 0
0.720000 0.040000 0
0.740000 0.040000 0
0.760000 0.040000 0
0.780000 0.040000 0
0.800000 0.040000 0
0.820000 0.040000 0
0.840000 0.040000 0
0.860000 0.040000 0
0.880000 0.040000 0
0.900000 0.040000 0
0.920000 0.040000 0
0.940000 0.040000 0
0.960000 0.040000 0
0.980000 0.040000 0
1.000000 0.040000 0
1.020000 0.040000 0
1.040000 0.040000 0
1.060000 0.040000 0
1.080000 0.040000 0
1.100000 0.040000 0
1.120000 0.040000 0
1.140000 0.040000 0
1.160000 0.040000 0
1.180000 0.040000 0
1.200000 0.040000 0
1.220000 0.040000 0
1.240000 0.040000 0
1.260000 0.040000 0
1.280000 0.040000 0
1.300000 0.040000 0
1.320000 0.040000 0
1.340000 0.040000 0
1.360000 0.040000 0
1.380000 0.040000 0
1.400000 0.040000 0
1.420000 0.040000 0
1.440000 0.040000 0
1.460000 0.040000 0
1.480000 0.040000 0
1.500000 0.040000 0
1.520000 0.040000 0
1.540000 0.040000 0
1.560000 0.040000 0
1.580000 0.040000 0
1.600000 0.040000 0
1.620000 0.040000 0
1.640000 0.040000 0
1.660000 0.040000 0
1.680000 0.040000 0
1.700000 0.040000 0
1.720000 0.040000 0
1.740000 0.040000 0
1.760000 0.040000 0
1.780000 0.040000 0
1.800000 0.040000 0
1.820000 0.040000 0
1.840000 0.040000 0
1.860000 0.040000 0
1.880000 0.040000 0
1.900000 0.040000 0
1.920000 0.040000 0
1.940000 0.040000 0
1.960000 0.040000 0
1.980000 0.040000 0
2.000000 0.040000 0
0.000000 0.060000 0
0.020000 0.060000 0
0.040000 0.060000 0
0.060000 0.060000 0
0.080000 0.060000 0
0.100000 0.060000 0
0.120000 0.060000 0
0.140000 0.060000 0
0.160000 0.060000 0
0.180000 0.060000 0
0.200000 0.060000 0
0.220000 0.060000 0
0.240000 0.060000 0
0.260000 0.060000 0
0.280000 0.060000 0
0.300000 0.060000 0
0.320000 0.060000 0
0.340000 0.060000 0
0.360000 0.060000 0
0.380000 0.060000 0
0.400000 0.060000 0
0.420000 0.060000 0
0.440000 0.060000 0
0.460000 0.060000 0
0.480000 0.060000 0
0.500000 0.060000 0
0.520000 0.060000 0
0.540000 0.060000 0
0.560000 0.060000 0
0.580000 0.060000 0
0.600000 0.060000 0
0.620000 0.060000 0
0.640000 0.060000 0
0.660000 0.060000 0
0.680000 0.060000 0
0.700000 0.060000 0
0.720000 0.060000 0
0.740000 0.060000 0
0.760000 0.060000 0
0.780000 0.060000 0
0.800000 0.060000 0
0.820000 0.060000 0
0.840000 0.060000 0
0.860000 0.060000 0
0.880000 0.060000 0
0.900000 0.060000 0
0.920000 0.060000 0
0.940000 0.060000 0
0.960000 0.060000 0
0.980000 0.060000 0
1.000000 0.060000 0
1.020000 0.060000 0
1.040000 0.060000 0
1.060000 0.060000 0
1.080000 0.060000 0
1.100000 0.060000 0
1.120000 0.060000 0
1.140000 0.060000 0
1.160000 0.060000 0
1.180000 0.060000 0
1.200000 0.060000 0
1.220000 0.060000 0
1.240000 0.060000 0
1.260000 0.060000 0
1.280000 0.060000 0
1.300000 0.060000 0
1.320000 0.060000 0
1.340000 0.060000 0
1.360000 0.060000 0
1.380000 0.060000 0
1.400000 0.060000 0
1.420000 0.060000 0
1.440000 0.060000 0
1.460000 0.060000 0
1.480000 0.060000 0
1.500000 0.060000 0
1.520000 0.060000 0
1.540000 0.060000 0
1.560000 0.060000 0
1.580000 0.060000 0
1.600000 0.060000 0
1.620000 0.060000 0
1.640000 0.060000 0
1.660000 0.060000 0
1.680000 0.060000 0
1.700000 0.060000 0
1.720000 0.060000 0
1.740000 0.060000 0
1.760000 0.060000 0
1.780000 0.060000 0
1.800000 0.060000 0
1.820000 0.060000 0
1.840000 0.060000 0
1.860000 0.060000 0
1.880000 0.060000 0
1.900000 0.060000 0
1.920000 0.060000 0
1.940000 0.060000 0
1.960000 0.060000 0
1.980000 0.060000 0
2.000000 0.060000 0
0.000000 0.080000 0
0.020000 0.080000 0
0.040000 0.080000 0
0.060000 0.080000 0
0.080000 0.080000 0
0.100000 0.080000 0
0.120000 0.080000 0
0.140000 0.080000 0
0.160000 0.080000 0
0.180000 0.080000 0
0.200000 0.080000 0
0.220000 0.080000 0
0.240000 0.080000 0
0.260000 0.080000 0
0.280000 0.080000 0
0.300000 0.080000 0
0.320000 0.080000 0
0.340000 0.080000 0
0.360000 0.080000 0
0.380000 0.080000 0
0.400000 0.080000 0
0.420000 0.080000 0
0.440000 0.080000 0
0.460000 0.080000 0
0.480000 0.080000 0
0.500000 0.080000 0
0.520000 0.080000 0
0.540000 0.080000 0
0.560000 0.080000 0
0.580000 0.080000 0
0.600000 0.080000 0
0.620000 0.080000 0
0.640000 0.080000 0
0.660000 0.080000 0
0.680000 0.080000 0
0.700000 0.080000 0
0.720000 0.080000 0
0.740000 0.080000 0
0.760000 0.080000 0
0.780000 0.080000 0
0.800000 0.080000 0
0.820000 0.080000 0
0.840000 0.080000 0
0.860000 0.080000 0
0.880000 0.080000 0
0.900000 0.080000 0
0.920000 0.080000 0
0.940000 0.080000 0
0.960000 0.080000 0
0.980000 0.080000 0
1.000000 0.080000 0
1.020000 0.080000 0
1.040000 0.080000 0
1.060000 0.080000 0
1.080000 0.080000 0
1.100000 0.080000 0
1.120000 0.080000 0
1.140000 0.080000 0
1.160000 0.080000 0
1.180000 0.080000 0
1.200000 0.080000 0
1.220000 0.080000 0
1.240000 0.080000 0
1.260000 0.080000 0
1.280000 0.080000 0
1.300000 0.080000 0
1.320000 0.080000 0
1.340000 0.080000 0
1.360000 0.080000 0
1.380000 0.080000 0
1.400000 0.080000 0
1.420000 0.080000 0
1.440000 0.080000 0
1.460000 0.080000 0
1.480000 0.080000 0
1.500000 0.080000 0
1.520000 0.080000 0
1.540000 0.080000 0
1.560000 0.080000 0
1.580000 0.080000 0
1.600000 0.080000 0
1.620000 0.080000 0
1.640000 0.080000 0
1.660000 0.080000 0
1.680000 0.080000 0
1.700000 0.080000 0
1.720000 0.080000 0
[...]
POINT_DATA 5151 

VECTORS velocity float
0.000000 0.000000 0
-0.000000 0.000000 0
-0.000000 0.000000 0
0.000000 0.000000 0
0.000000 0.000000 0
0.000000 0.000000 0
0.000000 0.000000 0
-0.000000 0.000000 0
-0.000000 0.000000 0
0.000000 0.000000 0
0.000000 0.000000 0
0.000000 0.000000 0
0.000000 0.000000 0
0.000000 0.000000 0
0.000000 0.000000 0
0.000000 0.000000 0
0.000000 0.000000 0
0.000000 0.000000 0
0.000000 0.000000 0
0.000000 0.000000 0
0.000000 0.000000 0
0.000000 0.000000 0
0.000000 0.000000 0
0.000000 0.000000 0
0.000000 0.000000 0
0.000000 0.000000 0
0.000000 0.000000 0
0.000000 0.000000 0
0.000000 0.000000 0
0.000000 0.000000 0
0.000000 0.000000 0
0.000000 0.000000 0
0.000000 0.000000 0
0.000000 0.000000 0
0.000000 0.000000 0
0.000000 0.000000 0
0.000000 0.000000 0
0.000000 0.000000 0
0.000000 0.000000 0
0.000000 0.000000 0
0.000000 0.000000 0
-0.000000 0.000000 0
-0.000000 0.000000 0
-0.000000 0.000000 0
-0.000000 0.000000 0
-0.000000 0.000000 0
-0.000000 0.000000 0
-0.000000 0.000000 0
-0.000000 0.000000 0
-0.000000 0.000000 0
-0.000000 0.000000 0
-0.000000 0.000000 0
-0.000000 0.000000 0
-0.000000 0.000000 0
-0.000000 0.000000 0
-0.000000 0.000000 0
0.000000 0.000000 0
0.000000 0.000000 0
0.000000 0.000000 0
0.000000 0.000000 0
0.000000 0.000000 0
0.000000 0.000000 0
0.000000 0.000000 0
0.000000 0.000000 0
0.000000 0.000000 0
0.000000 0.000000 0
-0.000000 0.000000 0
-0.000000 0.000000 0
-0.000000 0.000000 0
-0.000000 0.000000 0
-0.000000 0.000000 0
-0.000000 0.000000 0
-0.000000 0.000000 0
-0.000000 0.000000 0
-0.000000 0.000000 0
-0.000000 0.000000 0
-0.000000 0.000000 0
-0.000000 0.000000 0
0.000000 0.000000 0
0.000000 0.000000 0
0.000000 0.000000 0
0.000000 0.000000 0
0.000000 0.000000 0
0.000000 0.000000 0
0.000000 0.000000 0
0.000000 0.000000 0
0.000000 0.000000 0
0.000000 0.000000 0
0.000000 0.000000 0
0.000000 0.000000 0
0.000000 0.000000 0
0.000000 0.000000 0
0.000000 0.000000 0
0.000000 0.000000 0
0.000000 0.000000 0
0.000000 0.000000 0
0.000000 0.000000 0
0.000000 0.000000 0
0.000000 0.000000 0
0.000000 0.000000 0
0.000000 0.000000 0
0.000000 -0.000000 0
-0.000460 0.000350 0
-0.000986 0.000291 0
-0.001462 0.000265 0
-0.001919 0.000285 0
-0.002345 0.000287 0
-0.002683 0.000238 0
-0.002858 0.000129 0
-0.002796 -0.000035 0
-0.002446 -0.000234 0
-0.001810 -0.000431 0
-0.000937 -0.000591 0
0.000098 -0.000692 0
0.001185 -0.000717 0
0.002235 -0.000670 0
0.003174 -0.000571 0
0.003952 -0.000439 0
0.004533 -0.000291 0
0.004905 -0.000143 0
0.005067 -0.000007 0
0.005035 0.000111 0
0.004831 0.000206 0
0.004487 0.000275 0
0.004035 0.000317 0
0.003511 0.000335 0
0.002949 0.000334 0
0.002383 0.000316 0
0.001838 0.000285 0
0.001342 0.000240 0
0.000920 0.000180 0
0.000596 0.000100 0
0.000399 0.000005 0
0.000337 -0.000082 0
0.000378 -0.000109 0
0.000412 -0.000014 0
0.000283 0.000163 0
0.000000 0.000000 0
0.000000 -0.000128 0
0.000000 0.000000 0
0.000000 -0.000284 0
0.000000 0.000000 0
-0.000747 0.000532 0
-0.001680 0.000566 0
-0.002821 0.000815 0
-0.004284 0.001199 0
-0.006029 0.001579 0
-0.007873 0.001819 0
-0.009467 0.001721 0
-0.010247 0.001028 0
-0.009354 -0.000542 0
-0.005966 -0.002995 0
0.000427 -0.005823 0
0.008933 -0.007747 0
0.018357 -0.008080 0
0.027410 -0.007142 0
0.034965 -0.005210 0
0.040225 -0.002676 0
0.042780 -0.000069 0
0.042590 0.002255 0
0.039929 0.004139 0
0.035243 0.005392 0
0.029126 0.005875 0
0.022281 0.005541 0
0.015438 0.004509 0
0.009253 0.003098 0
0.004207 0.001749 0
0.000535 0.000794 0
-0.001788 0.000261 0
-0.002984 -0.000010 0
-0.003457 -0.000133 0
-0.003554 -0.000189 0
-0.003405 -0.000260 0
-0.003037 -0.000374 0
-0.002441 -0.000508 0
-0.001649 -0.000607 0
-0.000761 -0.000611 0
0.000068 -0.000503 0
0.000700 -0.000338 0
0.001105 -0.000183 0
0.001312 -0.000064 0
0.001375 0.000010 0
0.001349 0.000048 0
0.001279 0.000060 0
0.001195 0.000058 0
0.001113 0.000050 0
0.001038 0.000042 0
0.000969 0.000040 0
0.000895 0.000047 0
0.000806 0.000064 0
0.000690 0.000089 0
0.000540 0.000116 0
0.000361 0.000133 0
0.000170 0.000131 0
-0.000007 0.000111 0
-0.000148 0.000079 0
-0.000241 0.000042 0
-0.000281 0.000004 0
-0.000263 -0.000037 0
-0.000191 -0.000072 0
-0.000082 -0.000076 0
0.000000 0.000000 0
0.000000 -0.000000 0
-0.000545 0.000986 0
-0.001342 0.001003 0
-0.002122 0.000933 0
-0.002812 0.000883 0
-0.003358 0.000764 0
-0.003679 0.000513 0
-0.003682 0.000113 0
-0.003285 -0.000412 0
-0.002464 -0.000985 0
-0.001272 -0.001509 0
0.000191 -0.001908 0
0.001789 -0.002122 0
0.003400 -0.002137 0
0.004929 -0.001989 0
0.006297 -0.001717 0
0.007445 -0.001359 0
0.008330 -0.000953 0
0.008930 -0.000534 0
0.009237 -0.000130 0
0.009259 0.000236 0
0.009019 0.000548 0
0.008548 0.000797 0
0.007882 0.000976 0
0.007068 0.001085 0
0.006153 0.001128 0
0.005189 0.001111 0
0.004224 0.001040 0
0.003306 0.000919 0
0.002479 0.000746 0
0.001784 0.000521 0
0.001255 0.000259 0
0.000907 0.000021 0
0.000710 -0.000075 0
0.000561 0.000095 0
0.000313 0.000412 0
0.000000 0.000000 0
0.000000 -0.000283 0
0.000000 0.000000 0
0.000000 -0.000747 0
0.000000 0.000000 0
-0.000950 0.001680 0
-0.002444 0.002074 0
-0.004169 0.002604 0
-0.006020 0.003207 0
-0.007803 0.003588 0
-0.009183 0.003438 0
-0.009672 0.002375 0
-0.008563 -0.000113 0
-0.005093 -0.004282 0
0.001179 -0.009780 0
0.009820 -0.014898 0
0.019854 -0.017930 0
0.030550 -0.018478 0
0.040755 -0.016609 0
0.049440 -0.012815 0
0.055897 -0.007815 0
0.059748 -0.002365 0
0.060797 0.002851 0
0.059193 0.007348 0
0.055216 0.010803 0
0.049248 0.012961 0
0.041761 0.013688 0
0.033302 0.013028 0
0.024504 0.011231 0
0.016082 0.008718 0
0.008766 0.005995 0
0.003102 0.003519 0
-0.000739 0.001669 0
-0.002989 0.000570 0
-0.004017 -0.000052 0
-0.004281 -0.000517 0
-0.004007 -0.000964 0
-0.003316 -0.001388 0
-0.002307 -0.001680 0
-0.001137 -0.001717 0
-0.000011 -0.001461 0
0.000890 -0.001037 0
0.001503 -0.000612 0
0.001848 -0.000269 0
0.001987 -0.000037 0
0.001989 0.000096 0
0.001915 0.000154 0
0.001807 0.000166 0
0.001690 0.000157 0
0.001574 0.000144 0
0.001460 0.000143 0
0.001337 0.000162 0
0.001196 0.000205 0
0.001024 0.000266 0
0.000816 0.000329 0
0.000578 0.000370 0
0.000327 0.000367 0
0.000090 0.000318 0
-0.000107 0.000234 0
-0.000244 0.000133 0
-0.000310 0.000022 0
-0.000300 -0.000090 0
-0.000219 -0.000181 0
-0.000093 -0.000191 0
0.000000 0.000000 0
0.000000 0.000000 0
-0.000508 0.001692 0
-0.001346 0.001867 0
-0.002182 0.001735 0
-0.002863 0.001521 0
-0.003293 0.001154 0
-0.003374 0.000562 0
-0.003001 -0.000266 0
-0.002135 -0.001253 0
-0.000804 -0.002247 0
0.000854 -0.003087 0
0.002698 -0.003653 0
0.004590 -0.003901 0
0.006435 -0.003856 0
0.008149 -0.003567 0
0.009665 -0.003086 0
0.010931 -0.002472 0
0.011913 -0.001777 0
0.012588 -0.001050 0
0.012949 -0.000337 0
0.012998 0.000328 0
0.012750 0.000918 0
0.012228 0.001412 0
0.011463 0.001797 0
0.010494 0.002065 0
0.009369 0.002213 0
0.008141 0.002245 0
0.006868 0.002168 0
0.005607 0.001985 0
0.004413 0.001702 0
0.003338 0.001325 0
0.002421 0.000882 0
0.001691 0.000462 0
0.001143 0.000237 0
0.000725 0.000383 0
0.000334 0.000725 0
0.000000 0.000000 0
0.000000 -0.000441 0
0.000000 0.000000 0
0.000000 -0.001234 0
0.000000 0.000000 0
-0.000888 0.002975 0
-0.002397 0.003784 0
-0.004022 0.004391 0
-0.005495 0.004833 0
-0.006536 0.004742 0
-0.006784 0.003687 0
-0.005750 0.001101 0
-0.002744 -0.003551 0
0.002500 -0.010284 0
0.010011 -0.017908 0
0.019201 -0.024498 0
0.029682 -0.028477 0
0.040509 -0.028980 0
0.050581 -0.026031 0
0.058971 -0.020352 0
0.065102 -0.012985 0
0.068720 -0.004969 0
0.069817 0.002810 0
0.068513 0.009720 0
0.065031 0.015337 0
0.059662 0.019330 0
0.052740 0.021487 0
0.044646 0.021766 0
0.035838 0.020318 0
0.026859 0.017488 0
0.018309 0.013773 0
0.010782 0.009765 0
0.004728 0.006082 0
0.000431 0.003145 0
-0.002141 0.001102 0
-0.003329 -0.000270 0
-0.003548 -0.001339 0
-0.003115 -0.002208 0
-0.002238 -0.002785 0
-0.001127 -0.002907 0
-0.000017 -0.002530 0
0.000903 -0.001851 0
0.001547 -0.001140 0
0.001926 -0.000548 0
0.002095 -0.000131 0
0.002121 0.000119 0
0.002063 0.000242 0
0.001962 0.000283 0
0.001844 0.000282 0
0.001719 0.000273 0
0.001590 0.000277 0
0.001450 0.000311 0
0.001293 0.000377 0
0.001110 0.000469 0
0.000900 0.000562 0
0.000669 0.000622 0
0.000428 0.000619 0
0.000198 0.000544 0
-0.000001 0.000413 0
-0.000149 0.000246 0
-0.000233 0.000060 0
-0.000243 -0.000128 0
-0.000183 -0.000279 0
-0.000079 -0.000295 0
0.000000 0.000000 0
0.000000 0.000000 0
-0.000411 0.002333 0
-0.001138 0.002676 0
-0.001846 0.002449 0
-0.002343 0.001994 0
-0.002498 0.001274 0
-0.002191 0.000222 0
-0.001322 -0.001126 0
0.000077 -0.002609 0
0.001869 -0.003974 0
0.003885 -0.005012 0
0.005981 -0.005644 0
0.008049 -0.005859 0
0.010002 -0.005696 0
0.011771 -0.005219 0
0.013303 -0.004499 0
0.014560 -0.003607 0
0.015516 -0.002611 0
0.016159 -0.001570 0
0.016483 -0.000540 0
0.016493 0.000435 0
0.016199 0.001319 0
0.015619 0.002084 0
0.014777 0.002710 0
0.013705 0.003179 0
0.012441 0.003481 0
0.011033 0.003612 0
0.009535 0.003575 0
0.008005 0.003373 0
0.006501 0.003015 0
0.005076 0.002513 0
0.003777 0.001907 0
0.002644 0.001299 0
0.001706 0.000890 0
0.000965 0.000905 0
0.000381 0.001137 0
0.000000 0.000000 0
0.000000 -0.000617 0
0.000000 0.000000 0
0.000000 -0.001635 0
0.000000 0.000000 0
-0.000667 0.004077 0
-0.001864 0.005208 0
-0.003059 0.005702 0
-0.003925 0.005721 0
-0.004168 0.004878 0
-0.003438 0.002652 0
-0.001186 -0.001665 0
0.002817 -0.008363 0
0.008742 -0.017037 0
0.016637 -0.026482 0
0.026321 -0.034569 0
0.037074 -0.039238 0
0.047835 -0.039377 0
0.057505 -0.035071 0
0.065241 -0.027335 0
0.070620 -0.017563 0
0.073542 -0.007081 0
0.074117 0.003058 0
0.072500 0.012134 0
0.068951 0.019653 0
0.063776 0.025253 0
0.057290 0.028705 0
0.049800 0.029930 0
0.041637 0.029018 0
0.033176 0.026247 0
0.024841 0.022072 0
0.017085 0.017101 0
0.010334 0.012020 0
0.004960 0.007439 0
0.001131 0.003708 0
-0.001136 0.000890 0
-0.002125 -0.001178 0
-0.002168 -0.002698 0
-0.001627 -0.003669 0
-0.000774 -0.003938 0
0.000130 -0.003491 0
0.000898 -0.002602 0
0.001438 -0.001635 0
0.001754 -0.000817 0
0.001895 -0.000232 0
0.001920 0.000127 0
0.001876 0.000313 0
0.001794 0.000385 0
0.001694 0.000400 0
0.001584 0.000399 0
0.001465 0.000413 0
0.001334 0.000460 0
0.001188 0.000545 0
0.001025 0.000658 0
0.000846 0.000771 0
0.000654 0.000842 0
0.000458 0.000838 0
0.000268 0.000747 0
0.000096 0.000581 0
-0.000042 0.000364 0
-0.000132 0.000116 0
-0.000164 -0.000140 0
-0.000133 -0.000346 0
-0.000060 -0.000374 0
0.000000 0.000000 0
0.000000 0.000000 0
-0.000287 0.002830 0
-0.000822 0.003303 0
-0.001300 0.002939 0
-0.001508 0.002172 0
-0.001286 0.001003 0
-0.000471 -0.000614 0
0.000946 -0.002534 0
0.002844 -0.004443 0
0.005021 -0.006055 0
0.007323 -0.007199 0
0.009615 -0.007816 0
0.011798 -0.007922 0
0.013797 -0.007579 0
0.015559 -0.006867 0
0.017047 -0.005874 0
0.018235 -0.004685 0
0.019110 -0.003376 0
0.019665 -0.002017 0
0.019900 -0.000671 0
0.019824 0.000612 0
0.019446 0.001791 0
0.018781 0.002834 0
0.017850 0.003711 0
0.016678 0.004401 0
0.015298 0.004885 0
0.013750 0.005151 0
0.012078 0.005196 0
0.010335 0.005020 0
0.008574 0.004632 0
0.006848 0.004048 0
0.005206 0.003313 0
0.003696 0.002533 0
0.002369 0.001916 0
0.001277 0.001708 0
0.000453 0.001690 0
0.000000 0.000000 0
0.000000 -0.000823 0
0.000000 0.000000 0
0.000000 -0.001902 0
0.000000 0.000000 0
-0.000404 0.004839 0
-0.001191 0.006176 0
-0.001905 0.006452 0
-0.002228 0.005942 0
-0.001876 0.004255 0
-0.000488 0.000706 0
0.002286 -0.005153 0
0.006477 -0.013480 0
0.012569 -0.024103 0
0.020779 -0.035486 0
0.030686 -0.044935 0
0.041387 -0.049991 0
0.051749 -0.049412 0
0.060670 -0.043437 0
0.067406 -0.033466 0
0.071734 -0.021286 0
0.073752 -0.008466 0
0.073656 0.003851 0
0.071600 0.014886 0
0.067855 0.024061 0
0.062752 0.030991 0
0.056621 0.035463 0
0.049760 0.037418 0
0.042434 0.036942 0
0.034904 0.034284 0
0.027449 0.029865 0
0.020370 0.024273 0
0.013985 0.018206 0
0.008596 0.012348 0
0.004420 0.007199 0
0.001535 0.002986 0
-0.000115 -0.000307 0
-0.000719 -0.002707 0
-0.000618 -0.004180 0
-0.000141 -0.004663 0
0.000435 -0.004201 0
0.000934 -0.003160 0
0.001271 -0.001996 0
0.001452 -0.001005 0
0.001521 -0.000298 0
0.001520 0.000138 0
0.001481 0.000368 0
0.001422 0.000464 0
0.001350 0.000493 0
0.001267 0.000503 0
0.001173 0.000528 0
0.001069 0.000587 0
0.000953 0.000686 0
0.000827 0.000811 0
0.000695 0.000933 0
0.000558 0.001009 0
0.000419 0.001005 0
0.000282 0.000906 0
0.000150 0.000723 0
0.000034 0.000475 0
-0.000054 0.000182 0
-0.000098 -0.000127 0
-0.000092 -0.000382 0
-0.000045 -0.000428 0
0.000000 0.000000 0
0.000000 -0.000000 0
-0.000164 0.003155 0
-0.000480 0.003689 0
-0.000683 0.003135 0
-0.000539 0.001981 0
0.000153 0.000237 0
0.001526 -0.002010 0
0.003479 -0.004441 0
0.005819 -0.006685 0
0.008342 -0.008453 0
0.010882 -0.009605 0
0.013316 -0.010118 0
0.015558 -0.010041 0
0.017553 -0.009457 0
0.019264 -0.008469 0
0.020672 -0.007175 0
0.021762 -0.005670 0
0.022531 -0.004040 0
0.022979 -0.002361 0
0.023110 -0.000699 0
0.022931 0.000889 0
0.022454 0.002362 0
0.021691 0.003681 0
0.020662 0.004813 0
0.019389 0.005730 0
0.017900 0.006409 0
0.016229 0.006832 0
0.014412 0.006989 0
0.012495 0.006877 0
0.010523 0.006502 0
0.008546 0.005881 0
0.006611 0.005059 0
0.004769 0.004136 0
0.003083 0.003310 0
0.001639 0.002821 0
0.000545 0.002414 0
0.000000 0.000000 0
0.000000 -0.001070 0
0.000000 0.000000 0
0.000000 -0.002039 0
0.000000 0.000000 0
-0.000181 0.005268 0
-0.000603 0.006710 0
-0.000922 0.006738 0
-0.000867 0.005691 0
-0.000169 0.003138 0
0.001461 -0.001509 0
0.004102 -0.008630 0
0.008168 -0.018646 0
0.014251 -0.031339 0
0.022403 -0.044600 0
0.032035 -0.055177 0
0.042172 -0.060300 0
0.051657 -0.058660 0
0.059397 -0.050728 0
0.064743 -0.038398 0
0.067729 -0.023910 0
0.068702 -0.009004 0
0.067917 0.005210 0
0.065503 0.017935 0
0.061703 0.028501 0
0.056825 0.036486 0
0.051201 0.041697 0
0.045123 0.044117 0
0.038828 0.043874 0
0.032502 0.041232 0
0.026314 0.036606 0
0.020437 0.030564 0
0.015064 0.023795 0
0.010393 0.017004 0
0.006597 0.010768 0
0.003773 0.005425 0
0.001920 0.001076 0
0.000921 -0.002195 0
0.000604 -0.004247 0
0.000664 -0.004991 0
0.000845 -0.004566 0
0.001001 -0.003438 0
0.001076 -0.002153 0
0.001081 -0.001066 0
0.001052 -0.000300 0
0.001014 0.000166 0
0.000977 0.000411 0
0.000939 0.000517 0
0.000897 0.000555 0
0.000846 0.000575 0
0.000786 0.000611 0
0.000717 0.000680 0
0.000641 0.000787 0
0.000561 0.000917 0
0.000481 0.001040 0
0.000402 0.001118 0
0.000321 0.001114 0
0.000236 0.001016 0
0.000146 0.000829 0
0.000057 0.000568 0
-0.000019 0.000248 0
-0.000066 -0.000101 0
-0.000072 -0.000399 0
-0.000038 -0.000466 0
0.000000 0.000000 0
0.000000 -0.000000 0
-0.000061 0.003311 0
-0.000166 0.003821 0
-0.000075 0.002998 0
0.000466 0.001337 0
0.001699 -0.001062 0
0.003633 -0.003940 0
0.006103 -0.006827 0
0.008853 -0.009306 0
0.011664 -0.011118 0
0.014374 -0.012173 0
0.016881 -0.012492 0
0.019119 -0.012159 0
0.021057 -0.011285 0
0.022676 -0.009986 0
0.023972 -0.008372 0
0.024944 -0.006544 0
0.025597 -0.004592 0
0.025933 -0.002595 0
0.025961 -0.000623 0
0.025686 0.001268 0
0.025118 0.003031 0
0.024266 0.004626 0
0.023148 0.006014 0
0.021785 0.007163 0
0.020199 0.008045 0
0.018421 0.008639 0
0.016483 0.008929 0
0.014422 0.008909 0
0.012278 0.008581 0
0.010095 0.007961 0
0.007917 0.007091 0
0.005795 0.006061 0
0.003795 0.005046 0
0.002024 0.004246 0
0.000654 0.003329 0
0.000000 0.000000 0
0.000000 -0.001367 0
0.000000 0.000000 0
0.000000 -0.002083 0
0.000000 0.000000 0
-0.000031 0.005442 0
-0.000187 0.006918 0
-0.000239 0.006716 0
0.000022 0.005189 0
0.000797 0.001927 0
0.002244 -0.003565 0
0.004523 -0.011860 0
0.008248 -0.023630 0
0.013920 -0.038339 0
0.021433 -0.053270 0
0.030150 -0.064704 0
0.039127 -0.069614 0
0.047236 -0.066637 0
0.053390 -0.056523 0
0.057021 -0.041799 0
0.058457 -0.025245 0
0.058349 -0.008654 0
0.056952 0.007051 0
0.054359 0.021100 0
0.050737 0.032739 0
0.046342 0.041493 0
0.041481 0.047166 0
0.036439 0.049791 0
0.031426 0.049563 0
0.026573 0.046798 0
0.021956 0.041929 0
0.017637 0.035523 0
0.013689 0.028250 0
0.010207 0.020815 0
0.007291 0.013819 0
0.005018 0.007663 0
0.003402 0.002544 0
0.002360 -0.001391 0
0.001787 -0.003922 0
0.001475 -0.004903 0
0.001253 -0.004539 0
0.001042 -0.003391 0
0.000834 -0.002075 0
0.000659 -0.000982 0
0.000537 -0.000232 0
0.000466 0.000214 0
0.000430 0.000443 0
0.000412 0.000544 0
0.000397 0.000585 0
0.000378 0.000613 0
0.000353 0.000657 0
0.000323 0.000733 0
0.000289 0.000842 0
0.000257 0.000971 0
0.000229 0.001092 0
0.000203 0.001169 0
0.000175 0.001170 0
0.000135 0.001081 0
0.000082 0.000902 0
0.000020 0.000640 0
-0.000040 0.000305 0
-0.000077 -0.000075 0
-0.000078 -0.000411 0
-0.000040 -0.000500 0
0.000000 0.000000 0
0.000000 -0.000000 0
0.000015 0.003320 0
0.000102 0.003703 0
0.000496 0.002503 0
0.001485 0.000207 0
0.003294 -0.002930 0
0.005812 -0.006414 0
0.008762 -0.009661 0
0.011851 -0.012246 0
0.014860 -0.013974 0
0.017652 -0.014822 0
0.020150 -0.014864 0
0.022317 -0.014217 0
0.024142 -0.013014 0
0.025628 -0.011384 0
0.026785 -0.009443 0
0.027623 -0.007295 0
0.028153 -0.005029 0
0.028382 -0.002725 0
0.028317 -0.000452 0
0.027963 0.001733 0
0.027324 0.003782 0
0.026407 0.005650 0
0.025227 0.007294 0
0.023797 0.008679 0
0.022141 0.009773 0
0.020281 0.010549 0
0.018248 0.010989 0
0.016074 0.011082 0
0.013794 0.010829 0
0.011447 0.010242 0
0.009075 0.009358 0
0.006725 0.008258 0
0.004463 0.007081 0
0.002405 0.005963 0
0.000773 0.004438 0
0.000000 0.000000 0
0.000000 -0.001723 0
0.000000 0.000000 0
0.000000 -0.002070 0
0.000000 0.000000 0
0.000054 0.005455 0
0.000067 0.006918 0
0.000166 0.006529 0
0.000485 0.004655 0
0.001119 0.000915 0
0.002161 -0.005235 0
0.003903 -0.014634 0
0.006951 -0.028043 0
0.011662 -0.044524 0
0.017862 -0.060830 0
0.024991 -0.072871 0
0.032230 -0.077386 0
0.038549 -0.072923 0
0.042883 -0.060513 0
0.044688 -0.043465 0
0.044562 -0.025238 0
0.043495 -0.007499 0
0.041674 0.009200 0
0.039106 0.024149 0
0.035855 0.036518 0
0.032133 0.045742 0
0.028247 0.051600 0
0.024470 0.054172 0
0.020986 0.053740 0
0.017861 0.050702 0
0.015077 0.045542 0
0.012579 0.038832 0
0.010329 0.031225 0
0.008324 0.023402 0
0.006594 0.015957 0
0.005185 0.009314 0
0.004108 0.003735 0
0.003305 -0.000580 0
0.002672 -0.003362 0
0.002092 -0.004457 0
0.001513 -0.004132 0
0.000964 -0.003019 0
0.000508 -0.001770 0
0.000188 -0.000769 0
0.000001 -0.000107 0
-0.000088 0.000273 0
-0.000118 0.000464 0
-0.000120 0.000550 0
-0.000111 0.000588 0
-0.000101 0.000619 0
-0.000093 0.000667 0
-0.000085 0.000744 0
-0.000076 0.000852 0
-0.000063 0.000977 0
-0.000045 0.001094 0
-0.000025 0.001172 0
-0.000014 0.001182 0
-0.000018 0.001109 0
-0.000043 0.000945 0
-0.000082 0.000690 0
-0.000120 0.000345 0
-0.000137 -0.000063 0
-0.000116 -0.000436 0
-0.000056 -0.000544 0
0.000000 0.000000 0
0.000000 -0.000000 0
0.000065 0.003209 0
0.000324 0.003340 0
0.001036 0.001614 0
0.002557 -0.001461 0
0.004982 -0.005388 0
0.008054 -0.009408 0
0.011397 -0.012866 0
0.014712 -0.015405 0
0.017809 -0.016920 0
0.020581 -0.017462 0
0.022986 -0.017156 0
0.025014 -0.016151 0
0.026677 -0.014597 0
0.027996 -0.012629 0
0.028993 -0.010367 0
0.029687 -0.007912 0
0.030094 -0.005351 0
0.030224 -0.002760 0
0.030082 -0.000204 0
0.029670 0.002262 0
0.028987 0.004587 0
0.028037 0.006723 0
0.026826 0.008624 0
0.025367 0.010249 0
0.023673 0.011561 0
0.021767 0.012531 0
0.019673 0.013137 0
0.017420 0.013363 0
0.015042 0.013207 0
0.012573 0.012680 0
0.010052 0.011813 0
0.007525 0.010673 0
0.005053 0.009366 0
0.002757 0.007936 0
0.000894 0.005733 0
0.000000 0.000000 0
0.000000 -0.002140 0
0.000000 0.000000 0
0.000000 -0.002028 0
0.000000 0.000000 0
0.000103 0.005376 0
0.000218 0.006806 0
0.000393 0.006298 0
0.000671 0.004236 0
0.001054 0.000251 0
0.001580 -0.006349 0
0.002563 -0.016649 0
0.004516 -0.031388 0
0.007668 -0.049250 0
0.011887 -0.066599 0
0.016797 -0.079072 0
0.021815 -0.083172 0
0.026107 -0.077290 0
0.028693 -0.062662 0
0.028964 -0.043478 0
0.027592 -0.024052 0
0.025865 -0.005766 0
0.023852 0.011439 0
0.021398 0.026920 0